
     Program PWSCF v.7.2 starts on 22Oct2023 at 18:18: 7 

     This program is part of the open-source Quantum ESPRESSO suite
     for quantum simulation of materials; please cite
         "P. Giannozzi et al., J. Phys.:Condens. Matter 21 395502 (2009);
         "P. Giannozzi et al., J. Phys.:Condens. Matter 29 465901 (2017);
         "P. Giannozzi et al., J. Chem. Phys. 152 154105 (2020);
          URL http://www.quantum-espresso.org", 
     in publications or presentations arising from this work. More details at
     http://www.quantum-espresso.org/quote

     Parallel version (MPI & OpenMP), running on      12 processor cores
     Number of MPI processes:                 1
     Threads/MPI process:                    12

     MPI processes distributed on     1 nodes
     60264 MiB available memory on the printing compute node when the environment starts
 
     Reading input from aiida.in

     Current dimensions of program PWSCF are:
     Max number of different atomic species (ntypx) = 10
     Max number of k-points (npk) =  40000
     Max angular momentum in pseudopotentials (lmaxx) =  4
     file Cu.paw.z_11.ld1.psl.v1.0.0-low.upf: wavefunction(s)  4S 3D renormalized
     Message from routine setup:
     using ibrav=0 with symmetry is DISCOURAGED, use correct ibrav instead
 
     Subspace diagonalization in iterative solution of the eigenvalue problem:
     a serial algorithm will be used

 
     G-vector sticks info
     --------------------
     sticks:   dense  smooth     PW     G-vecs:    dense   smooth      PW
     Sum       10177    5089   1381               678099   239705   33823
 
     Using Slab Decomposition
 


     bravais-lattice index     =            0
     lattice parameter (alat)  =      14.3245  a.u.
     unit-cell volume          =    2078.3609 (a.u.)^3
     number of atoms/cell      =            9
     number of atomic types    =            3
     number of electrons       =        55.00
     number of Kohn-Sham states=           34
     kinetic-energy cutoff     =      90.0000  Ry
     charge density cutoff     =     720.0000  Ry
     scf convergence threshold =      1.8E-09
     mixing beta               =       0.4000
     number of iterations used =            8  plain     mixing
     Exchange-correlation= PBESOL
                           (   1   4  10   8   0   0   0)

     GPU acceleration is ACTIVE.


     GPU used by master process:

        Device Number: 0
        Device name: Tesla P100-PCIE-16GB
        Compute capability : 60
        Ratio of single to double precision performance  : 2
        Memory Clock Rate (KHz): 715000
        Memory Bus Width (bits): 4096
        Peak Memory Bandwidth (GB/s): 732.16

     celldm(1)=  14.324473  celldm(2)=   0.000000  celldm(3)=   0.000000
     celldm(4)=   0.000000  celldm(5)=   0.000000  celldm(6)=   0.000000

     crystal axes: (cart. coord. in units of alat)
               a(1) = (   0.000000   0.707107   0.707107 )  
               a(2) = (   0.707107   0.000000   0.707107 )  
               a(3) = (   0.707107   0.707107   0.000000 )  

     reciprocal axes: (cart. coord. in units 2 pi/alat)
               b(1) = ( -0.707107  0.707107  0.707107 )  
               b(2) = (  0.707107 -0.707107  0.707107 )  
               b(3) = (  0.707107  0.707107 -0.707107 )  


     PseudoPot. # 1 for Cu read from file:
     ./pseudo/Cu.paw.z_11.ld1.psl.v1.0.0-low.upf
     MD5 check sum: e985f55843d4aeb8486834e0a057895d
     Pseudo is Projector augmented-wave + core cor, Zval = 11.0
     Generated using &quot;atomic&quot; code by A. Dal Corso  v.6.3MaX
     Shape of augmentation charge: PSQ
     Using radial grid of 1199 points,  6 beta functions with: 
                l(1) =   0
                l(2) =   0
                l(3) =   1
                l(4) =   1
                l(5) =   2
                l(6) =   2
     Q(r) pseudized with 0 coefficients 


     PseudoPot. # 2 for I  read from file:
     ./pseudo/I.pbesol-n-kjpaw_psl.0.2.UPF
     MD5 check sum: cecf1a22a184a0b1ae701638a037a48d
     Pseudo is Projector augmented-wave + core cor, Zval =  7.0
     Generated using "atomic" code by A. Dal Corso  v.6.0 svn rev. 13079
     Shape of augmentation charge: PSQ
     Using radial grid of 1247 points,  4 beta functions with: 
                l(1) =   0
                l(2) =   0
                l(3) =   1
                l(4) =   1
     Q(r) pseudized with 0 coefficients 


     PseudoPot. # 3 for N  read from file:
     ./pseudo/N.pbesol-theos.UPF
     MD5 check sum: 1b64827339d390a5a22afef3ff345c9d
     Pseudo is Ultrasoft + core correction, Zval =  5.0
     Generated using "atomic" code by A. Dal Corso  v.5.1
     Using radial grid of 1085 points,  4 beta functions with: 
                l(1) =   0
                l(2) =   0
                l(3) =   1
                l(4) =   1
     Q(r) pseudized with 0 coefficients 


     atomic species   valence    mass     pseudopotential
        Cu            11.00    63.54600     Cu( 1.00)
        I              7.00   126.90447     I ( 1.00)
        N              5.00    14.00670     N ( 1.00)

     Starting magnetic structure 
     atomic species   magnetization
        Cu           0.100
        I            0.100
        N            0.100

     48 Sym. Ops., with inversion, found


                                    s                        frac. trans.

      isym =  1     identity                                     

 cryst.   s( 1) = (     1          0          0      )
                  (     0          1          0      )
                  (     0          0          1      )

 cart.    s( 1) = (  1.0000000 -0.0000000  0.0000000 )
                  ( -0.0000000  1.0000000  0.0000000 )
                  ( -0.0000000  0.0000000  1.0000000 )


      isym =  2     180 deg rotation - cart. axis [0,0,1]        

 cryst.   s( 2) = (     0          1         -1      )
                  (     1          0         -1      )
                  (     0          0         -1      )

 cart.    s( 2) = ( -1.0000000  0.0000000  0.0000000 )
                  (  0.0000000 -1.0000000  0.0000000 )
                  (  0.0000000 -0.0000000  1.0000000 )


      isym =  3     180 deg rotation - cart. axis [0,1,0]        

 cryst.   s( 3) = (     0         -1          1      )
                  (     0         -1          0      )
                  (     1         -1          0      )

 cart.    s( 3) = ( -1.0000000 -0.0000000 -0.0000000 )
                  (  0.0000000  1.0000000 -0.0000000 )
                  (  0.0000000  0.0000000 -1.0000000 )


      isym =  4     180 deg rotation - cart. axis [1,0,0]        

 cryst.   s( 4) = (    -1          0          0      )
                  (    -1          0          1      )
                  (    -1          1          0      )

 cart.    s( 4) = (  1.0000000  0.0000000 -0.0000000 )
                  ( -0.0000000 -1.0000000 -0.0000000 )
                  ( -0.0000000 -0.0000000 -1.0000000 )


      isym =  5     180 deg rotation - cart. axis [1,1,0]        

 cryst.   s( 5) = (    -1          0          1      )
                  (     0         -1          1      )
                  (     0          0          1      )

 cart.    s( 5) = ( -0.0000000  1.0000000 -0.0000000 )
                  (  1.0000000 -0.0000000 -0.0000000 )
                  (  0.0000000 -0.0000000 -1.0000000 )


      isym =  6     180 deg rotation - cart. axis [1,-1,0]       

 cryst.   s( 6) = (     0         -1          0      )
                  (    -1          0          0      )
                  (     0          0         -1      )

 cart.    s( 6) = (  0.0000000 -1.0000000 -0.0000000 )
                  ( -1.0000000  0.0000000 -0.0000000 )
                  ( -0.0000000  0.0000000 -1.0000000 )


      isym =  7      90 deg rotation - cart. axis [0,0,-1]       

 cryst.   s( 7) = (     0          1          0      )
                  (     0          1         -1      )
                  (    -1          1          0      )

 cart.    s( 7) = (  0.0000000  1.0000000  0.0000000 )
                  ( -1.0000000 -0.0000000  0.0000000 )
                  ( -0.0000000 -0.0000000  1.0000000 )


      isym =  8      90 deg rotation - cart. axis [0,0,1]        

 cryst.   s( 8) = (     1          0         -1      )
                  (     1          0          0      )
                  (     1         -1          0      )

 cart.    s( 8) = ( -0.0000000 -1.0000000  0.0000000 )
                  (  1.0000000  0.0000000  0.0000000 )
                  (  0.0000000  0.0000000  1.0000000 )


      isym =  9     180 deg rotation - cart. axis [1,0,1]        

 cryst.   s( 9) = (    -1          1          0      )
                  (     0          1          0      )
                  (     0          1         -1      )

 cart.    s( 9) = (  0.0000000  0.0000000  1.0000000 )
                  (  0.0000000 -1.0000000 -0.0000000 )
                  (  1.0000000 -0.0000000 -0.0000000 )


      isym = 10     180 deg rotation - cart. axis [-1,0,1]       

 cryst.   s(10) = (     0          0         -1      )
                  (     0         -1          0      )
                  (    -1          0          0      )

 cart.    s(10) = ( -0.0000000  0.0000000 -1.0000000 )
                  ( -0.0000000 -1.0000000  0.0000000 )
                  ( -1.0000000 -0.0000000  0.0000000 )


      isym = 11      90 deg rotation - cart. axis [0,1,0]        

 cryst.   s(11) = (     0          0          1      )
                  (    -1          0          1      )
                  (     0         -1          1      )

 cart.    s(11) = ( -0.0000000 -0.0000000  1.0000000 )
                  ( -0.0000000  1.0000000 -0.0000000 )
                  ( -1.0000000  0.0000000 -0.0000000 )


      isym = 12      90 deg rotation - cart. axis [0,-1,0]       

 cryst.   s(12) = (     1         -1          0      )
                  (     1          0         -1      )
                  (     1          0          0      )

 cart.    s(12) = (  0.0000000 -0.0000000 -1.0000000 )
                  (  0.0000000  1.0000000  0.0000000 )
                  (  1.0000000  0.0000000  0.0000000 )


      isym = 13     180 deg rotation - cart. axis [0,1,1]        

 cryst.   s(13) = (     1          0          0      )
                  (     1         -1          0      )
                  (     1          0         -1      )

 cart.    s(13) = ( -1.0000000  0.0000000 -0.0000000 )
                  (  0.0000000  0.0000000  1.0000000 )
                  (  0.0000000  1.0000000  0.0000000 )


      isym = 14     180 deg rotation - cart. axis [0,1,-1]       

 cryst.   s(14) = (    -1          0          0      )
                  (     0          0         -1      )
                  (     0         -1          0      )

 cart.    s(14) = ( -1.0000000 -0.0000000  0.0000000 )
                  (  0.0000000 -0.0000000 -1.0000000 )
                  (  0.0000000 -1.0000000 -0.0000000 )


      isym = 15      90 deg rotation - cart. axis [-1,0,0]       

 cryst.   s(15) = (     0         -1          1      )
                  (     0          0          1      )
                  (    -1          0          1      )

 cart.    s(15) = (  1.0000000 -0.0000000 -0.0000000 )
                  ( -0.0000000 -0.0000000  1.0000000 )
                  ( -0.0000000 -1.0000000  0.0000000 )


      isym = 16      90 deg rotation - cart. axis [1,0,0]        

 cryst.   s(16) = (     0          1         -1      )
                  (    -1          1          0      )
                  (     0          1          0      )

 cart.    s(16) = (  1.0000000  0.0000000  0.0000000 )
                  ( -0.0000000  0.0000000 -1.0000000 )
                  ( -0.0000000  1.0000000 -0.0000000 )


      isym = 17     120 deg rotation - cart. axis [-1,-1,-1]     

 cryst.   s(17) = (     0          0          1      )
                  (     1          0          0      )
                  (     0          1          0      )

 cart.    s(17) = (  0.0000000  1.0000000 -0.0000000 )
                  (  0.0000000 -0.0000000  1.0000000 )
                  (  1.0000000 -0.0000000  0.0000000 )


      isym = 18     120 deg rotation - cart. axis [-1,1,1]       

 cryst.   s(18) = (     1         -1          0      )
                  (     0         -1          1      )
                  (     0         -1          0      )

 cart.    s(18) = ( -0.0000000 -1.0000000 -0.0000000 )
                  ( -0.0000000  0.0000000  1.0000000 )
                  ( -1.0000000  0.0000000  0.0000000 )


      isym = 19     120 deg rotation - cart. axis [1,1,-1]       

 cryst.   s(19) = (    -1          1          0      )
                  (    -1          0          0      )
                  (    -1          0          1      )

 cart.    s(19) = ( -0.0000000  1.0000000  0.0000000 )
                  ( -0.0000000 -0.0000000 -1.0000000 )
                  ( -1.0000000 -0.0000000 -0.0000000 )


      isym = 20     120 deg rotation - cart. axis [1,-1,1]       

 cryst.   s(20) = (     0          0         -1      )
                  (     0          1         -1      )
                  (     1          0         -1      )

 cart.    s(20) = (  0.0000000 -1.0000000  0.0000000 )
                  (  0.0000000  0.0000000 -1.0000000 )
                  (  1.0000000  0.0000000 -0.0000000 )


      isym = 21     120 deg rotation - cart. axis [1,1,1]        

 cryst.   s(21) = (     0          1          0      )
                  (     0          0          1      )
                  (     1          0          0      )

 cart.    s(21) = ( -0.0000000  0.0000000  1.0000000 )
                  (  1.0000000  0.0000000 -0.0000000 )
                  (  0.0000000  1.0000000 -0.0000000 )


      isym = 22     120 deg rotation - cart. axis [-1,1,-1]      

 cryst.   s(22) = (    -1          0          1      )
                  (    -1          1          0      )
                  (    -1          0          0      )

 cart.    s(22) = (  0.0000000 -0.0000000  1.0000000 )
                  ( -1.0000000 -0.0000000 -0.0000000 )
                  ( -0.0000000 -1.0000000 -0.0000000 )


      isym = 23     120 deg rotation - cart. axis [1,-1,-1]      

 cryst.   s(23) = (     1          0         -1      )
                  (     0          0         -1      )
                  (     0          1         -1      )

 cart.    s(23) = (  0.0000000  0.0000000 -1.0000000 )
                  ( -1.0000000  0.0000000  0.0000000 )
                  ( -0.0000000  1.0000000  0.0000000 )


      isym = 24     120 deg rotation - cart. axis [-1,-1,1]      

 cryst.   s(24) = (     0         -1          0      )
                  (     1         -1          0      )
                  (     0         -1          1      )

 cart.    s(24) = ( -0.0000000 -0.0000000 -1.0000000 )
                  (  1.0000000 -0.0000000  0.0000000 )
                  (  0.0000000 -1.0000000  0.0000000 )


      isym = 25     inversion                                    

 cryst.   s(25) = (    -1          0          0      )
                  (     0         -1          0      )
                  (     0          0         -1      )

 cart.    s(25) = ( -1.0000000  0.0000000 -0.0000000 )
                  (  0.0000000 -1.0000000 -0.0000000 )
                  (  0.0000000 -0.0000000 -1.0000000 )


      isym = 26     inv. 180 deg rotation - cart. axis [0,0,1]   

 cryst.   s(26) = (     0         -1          1      )
                  (    -1          0          1      )
                  (     0          0          1      )

 cart.    s(26) = (  1.0000000 -0.0000000 -0.0000000 )
                  ( -0.0000000  1.0000000 -0.0000000 )
                  ( -0.0000000  0.0000000 -1.0000000 )


      isym = 27     inv. 180 deg rotation - cart. axis [0,1,0]   

 cryst.   s(27) = (     0          1         -1      )
                  (     0          1          0      )
                  (    -1          1          0      )

 cart.    s(27) = (  1.0000000  0.0000000  0.0000000 )
                  ( -0.0000000 -1.0000000  0.0000000 )
                  ( -0.0000000 -0.0000000  1.0000000 )


      isym = 28     inv. 180 deg rotation - cart. axis [1,0,0]   

 cryst.   s(28) = (     1          0          0      )
                  (     1          0         -1      )
                  (     1         -1          0      )

 cart.    s(28) = ( -1.0000000 -0.0000000  0.0000000 )
                  (  0.0000000  1.0000000  0.0000000 )
                  (  0.0000000  0.0000000  1.0000000 )


      isym = 29     inv. 180 deg rotation - cart. axis [1,1,0]   

 cryst.   s(29) = (     1          0         -1      )
                  (     0          1         -1      )
                  (     0          0         -1      )

 cart.    s(29) = (  0.0000000 -1.0000000  0.0000000 )
                  ( -1.0000000  0.0000000  0.0000000 )
                  ( -0.0000000  0.0000000  1.0000000 )


      isym = 30     inv. 180 deg rotation - cart. axis [1,-1,0]  

 cryst.   s(30) = (     0          1          0      )
                  (     1          0          0      )
                  (     0          0          1      )

 cart.    s(30) = ( -0.0000000  1.0000000  0.0000000 )
                  (  1.0000000 -0.0000000  0.0000000 )
                  (  0.0000000 -0.0000000  1.0000000 )


      isym = 31     inv.  90 deg rotation - cart. axis [0,0,-1]  

 cryst.   s(31) = (     0         -1          0      )
                  (     0         -1          1      )
                  (     1         -1          0      )

 cart.    s(31) = ( -0.0000000 -1.0000000 -0.0000000 )
                  (  1.0000000  0.0000000 -0.0000000 )
                  (  0.0000000  0.0000000 -1.0000000 )


      isym = 32     inv.  90 deg rotation - cart. axis [0,0,1]   

 cryst.   s(32) = (    -1          0          1      )
                  (    -1          0          0      )
                  (    -1          1          0      )

 cart.    s(32) = (  0.0000000  1.0000000 -0.0000000 )
                  ( -1.0000000 -0.0000000 -0.0000000 )
                  ( -0.0000000 -0.0000000 -1.0000000 )


      isym = 33     inv. 180 deg rotation - cart. axis [1,0,1]   

 cryst.   s(33) = (     1         -1          0      )
                  (     0         -1          0      )
                  (     0         -1          1      )

 cart.    s(33) = ( -0.0000000 -0.0000000 -1.0000000 )
                  ( -0.0000000  1.0000000  0.0000000 )
                  ( -1.0000000  0.0000000  0.0000000 )


      isym = 34     inv. 180 deg rotation - cart. axis [-1,0,1]  

 cryst.   s(34) = (     0          0          1      )
                  (     0          1          0      )
                  (     1          0          0      )

 cart.    s(34) = (  0.0000000 -0.0000000  1.0000000 )
                  (  0.0000000  1.0000000 -0.0000000 )
                  (  1.0000000  0.0000000 -0.0000000 )


      isym = 35     inv.  90 deg rotation - cart. axis [0,1,0]   

 cryst.   s(35) = (     0          0         -1      )
                  (     1          0         -1      )
                  (     0          1         -1      )

 cart.    s(35) = (  0.0000000  0.0000000 -1.0000000 )
                  (  0.0000000 -1.0000000  0.0000000 )
                  (  1.0000000 -0.0000000  0.0000000 )


      isym = 36     inv.  90 deg rotation - cart. axis [0,-1,0]  

 cryst.   s(36) = (    -1          1          0      )
                  (    -1          0          1      )
                  (    -1          0          0      )

 cart.    s(36) = ( -0.0000000  0.0000000  1.0000000 )
                  ( -0.0000000 -1.0000000 -0.0000000 )
                  ( -1.0000000 -0.0000000 -0.0000000 )


      isym = 37     inv. 180 deg rotation - cart. axis [0,1,1]   

 cryst.   s(37) = (    -1          0          0      )
                  (    -1          1          0      )
                  (    -1          0          1      )

 cart.    s(37) = (  1.0000000 -0.0000000  0.0000000 )
                  ( -0.0000000 -0.0000000 -1.0000000 )
                  ( -0.0000000 -1.0000000 -0.0000000 )


      isym = 38     inv. 180 deg rotation - cart. axis [0,1,-1]  

 cryst.   s(38) = (     1          0          0      )
                  (     0          0          1      )
                  (     0          1          0      )

 cart.    s(38) = (  1.0000000  0.0000000 -0.0000000 )
                  ( -0.0000000  0.0000000  1.0000000 )
                  ( -0.0000000  1.0000000  0.0000000 )


      isym = 39     inv.  90 deg rotation - cart. axis [-1,0,0]  

 cryst.   s(39) = (     0          1         -1      )
                  (     0          0         -1      )
                  (     1          0         -1      )

 cart.    s(39) = ( -1.0000000  0.0000000  0.0000000 )
                  (  0.0000000  0.0000000 -1.0000000 )
                  (  0.0000000  1.0000000 -0.0000000 )


      isym = 40     inv.  90 deg rotation - cart. axis [1,0,0]   

 cryst.   s(40) = (     0         -1          1      )
                  (     1         -1          0      )
                  (     0         -1          0      )

 cart.    s(40) = ( -1.0000000 -0.0000000 -0.0000000 )
                  (  0.0000000 -0.0000000  1.0000000 )
                  (  0.0000000 -1.0000000  0.0000000 )


      isym = 41     inv. 120 deg rotation - cart. axis [-1,-1,-1]

 cryst.   s(41) = (     0          0         -1      )
                  (    -1          0          0      )
                  (     0         -1          0      )

 cart.    s(41) = ( -0.0000000 -1.0000000  0.0000000 )
                  ( -0.0000000  0.0000000 -1.0000000 )
                  ( -1.0000000  0.0000000 -0.0000000 )


      isym = 42     inv. 120 deg rotation - cart. axis [-1,1,1]  

 cryst.   s(42) = (    -1          1          0      )
                  (     0          1         -1      )
                  (     0          1          0      )

 cart.    s(42) = (  0.0000000  1.0000000  0.0000000 )
                  (  0.0000000 -0.0000000 -1.0000000 )
                  (  1.0000000 -0.0000000 -0.0000000 )


      isym = 43     inv. 120 deg rotation - cart. axis [1,1,-1]  

 cryst.   s(43) = (     1         -1          0      )
                  (     1          0          0      )
                  (     1          0         -1      )

 cart.    s(43) = (  0.0000000 -1.0000000 -0.0000000 )
                  (  0.0000000  0.0000000  1.0000000 )
                  (  1.0000000  0.0000000  0.0000000 )


      isym = 44     inv. 120 deg rotation - cart. axis [1,-1,1]  

 cryst.   s(44) = (     0          0          1      )
                  (     0         -1          1      )
                  (    -1          0          1      )

 cart.    s(44) = ( -0.0000000  1.0000000 -0.0000000 )
                  ( -0.0000000 -0.0000000  1.0000000 )
                  ( -1.0000000 -0.0000000  0.0000000 )


      isym = 45     inv. 120 deg rotation - cart. axis [1,1,1]   

 cryst.   s(45) = (     0         -1          0      )
                  (     0          0         -1      )
                  (    -1          0          0      )

 cart.    s(45) = (  0.0000000 -0.0000000 -1.0000000 )
                  ( -1.0000000 -0.0000000  0.0000000 )
                  ( -0.0000000 -1.0000000  0.0000000 )


      isym = 46     inv. 120 deg rotation - cart. axis [-1,1,-1] 

 cryst.   s(46) = (     1          0         -1      )
                  (     1         -1          0      )
                  (     1          0          0      )

 cart.    s(46) = ( -0.0000000  0.0000000 -1.0000000 )
                  (  1.0000000  0.0000000  0.0000000 )
                  (  0.0000000  1.0000000  0.0000000 )


      isym = 47     inv. 120 deg rotation - cart. axis [1,-1,-1] 

 cryst.   s(47) = (    -1          0          1      )
                  (     0          0          1      )
                  (     0         -1          1      )

 cart.    s(47) = ( -0.0000000 -0.0000000  1.0000000 )
                  (  1.0000000 -0.0000000 -0.0000000 )
                  (  0.0000000 -1.0000000 -0.0000000 )


      isym = 48     inv. 120 deg rotation - cart. axis [-1,-1,1] 

 cryst.   s(48) = (     0          1          0      )
                  (    -1          1          0      )
                  (     0          1         -1      )

 cart.    s(48) = (  0.0000000  0.0000000  1.0000000 )
                  ( -1.0000000  0.0000000 -0.0000000 )
                  ( -0.0000000  1.0000000 -0.0000000 )


   Cartesian axes

     site n.     atom                  positions (alat units)
         1           Cu  tau(   1) = (   0.0000000   0.0000000   0.0000000  )
         2           I   tau(   2) = (   0.3535534   0.3535534   1.0606602  )
         3           I   tau(   3) = (   0.3535534   1.0606602   1.0606602  )
         4           N   tau(   4) = (   1.0787621  -0.0000000  -0.0000000  )
         5           N   tau(   5) = (   0.7071068   0.3716553  -0.0000000  )
         6           N   tau(   6) = (   0.0000000   0.0000000   1.0787621  )
         7           N   tau(   7) = (   0.7071068  -0.0000000   1.0425582  )
         8           N   tau(   8) = (   0.7071068   1.0425582  -0.0000000  )
         9           N   tau(   9) = (   0.3354515   0.0000000   0.0000000  )

   Crystallographic axes

     site n.     atom                  positions (cryst. coord.)
         1           Cu  tau(   1) = (  0.0000000  0.0000000  0.0000000  )
         2           I   tau(   2) = (  0.7500000  0.7500000 -0.2500000  )
         3           I   tau(   3) = (  1.2500000  0.2500000  0.2500000  )
         4           N   tau(   4) = ( -0.7628000  0.7628000  0.7628000  )
         5           N   tau(   5) = ( -0.2372000  0.2372000  0.7628000  )
         6           N   tau(   6) = (  0.7628000  0.7628000 -0.7628000  )
         7           N   tau(   7) = (  0.2372000  1.2372000 -0.2372000  )
         8           N   tau(   8) = (  0.2372000 -0.2372000  1.2372000  )
         9           N   tau(   9) = ( -0.2372000  0.2372000  0.2372000  )

     number of k points=    20  Marzari-Vanderbilt smearing, width (Ry)=  0.0100
                       cart. coord. in units 2pi/alat
        k(    1) = (   0.0000000   0.0000000   0.0000000), wk =   0.0029155
        k(    2) = (   0.1010153   0.1010153  -0.1010153), wk =   0.0233236
        k(    3) = (   0.2020305   0.2020305  -0.2020305), wk =   0.0233236
        k(    4) = (   0.3030458   0.3030458  -0.3030458), wk =   0.0233236
        k(    5) = (   0.2020305  -0.0000000   0.0000000), wk =   0.0174927
        k(    6) = (   0.3030458   0.1010153  -0.1010153), wk =   0.0699708
        k(    7) = (   0.4040610   0.2020305  -0.2020305), wk =   0.0699708
        k(    8) = (  -0.2020305  -0.4040610   0.4040610), wk =   0.0699708
        k(    9) = (  -0.1010153  -0.3030458   0.3030458), wk =   0.0699708
        k(   10) = (  -0.0000000  -0.2020305   0.2020305), wk =   0.0349854
        k(   11) = (   0.4040610  -0.0000000   0.0000000), wk =   0.0174927
        k(   12) = (   0.5050763   0.1010153  -0.1010153), wk =   0.0699708
        k(   13) = (  -0.1010153  -0.5050763   0.5050763), wk =   0.0699708
        k(   14) = (   0.0000000  -0.4040610   0.4040610), wk =   0.0349854
        k(   15) = (   0.6060915  -0.0000000   0.0000000), wk =   0.0174927
        k(   16) = (  -0.0000000  -0.6060915   0.6060915), wk =   0.0349854
        k(   17) = (   0.4040610   0.2020305   0.0000000), wk =   0.0699708
        k(   18) = (  -0.2020305  -0.4040610   0.6060915), wk =   0.1399417
        k(   19) = (  -0.1010153  -0.5050763   0.7071068), wk =   0.0699708
        k(   20) = (  -0.0000000  -0.4040610   0.6060915), wk =   0.0699708

                       cryst. coord.
        k(    1) = (   0.0000000   0.0000000   0.0000000), wk =   0.0029155
        k(    2) = (  -0.0000000  -0.0000000   0.1428571), wk =   0.0233236
        k(    3) = (  -0.0000000  -0.0000000   0.2857143), wk =   0.0233236
        k(    4) = (  -0.0000000  -0.0000000   0.4285714), wk =   0.0233236
        k(    5) = (   0.0000000   0.1428571   0.1428571), wk =   0.0174927
        k(    6) = (  -0.0000000   0.1428571   0.2857143), wk =   0.0699708
        k(    7) = (  -0.0000000   0.1428571   0.4285714), wk =   0.0699708
        k(    8) = (   0.0000000   0.1428571  -0.4285714), wk =   0.0699708
        k(    9) = (   0.0000000   0.1428571  -0.2857143), wk =   0.0699708
        k(   10) = (  -0.0000000   0.1428571  -0.1428571), wk =   0.0349854
        k(   11) = (   0.0000000   0.2857143   0.2857143), wk =   0.0174927
        k(   12) = (  -0.0000000   0.2857143   0.4285714), wk =   0.0699708
        k(   13) = (  -0.0000000   0.2857143  -0.4285714), wk =   0.0699708
        k(   14) = (   0.0000000   0.2857143  -0.2857143), wk =   0.0349854
        k(   15) = (   0.0000000   0.4285714   0.4285714), wk =   0.0174927
        k(   16) = (   0.0000000   0.4285714  -0.4285714), wk =   0.0349854
        k(   17) = (   0.1428571   0.2857143   0.4285714), wk =   0.0699708
        k(   18) = (   0.1428571   0.2857143  -0.4285714), wk =   0.1399417
        k(   19) = (   0.1428571   0.4285714  -0.4285714), wk =   0.0699708
        k(   20) = (   0.1428571   0.4285714  -0.2857143), wk =   0.0699708

     Dense  grid:   678099 G-vectors     FFT dimensions: ( 125, 125, 125)

     Smooth grid:   239705 G-vectors     FFT dimensions: (  90,  90,  90)

     Dynamical RAM for                 wfc:      15.55 MB

     Dynamical RAM for     wfc (w. buffer):     637.40 MB

     Dynamical RAM for           str. fact:      31.04 MB

     Dynamical RAM for           local pot:       0.00 MB

     Dynamical RAM for          nlocal pot:      37.49 MB

     Dynamical RAM for                qrad:       6.46 MB

     Dynamical RAM for          rho,v,vnew:     151.49 MB

     Dynamical RAM for               rhoin:      50.50 MB

     Dynamical RAM for            rho*nmix:     331.10 MB

     Dynamical RAM for           G-vectors:      40.63 MB

     Dynamical RAM for          h,s,v(r/c):       0.21 MB

     Dynamical RAM for          <psi|beta>:       0.04 MB

     Dynamical RAM for                 psi:      31.09 MB

     Dynamical RAM for                hpsi:      31.09 MB

     Dynamical RAM for                spsi:      31.09 MB

     Dynamical RAM for      wfcinit/wfcrot:      37.53 MB

     Dynamical RAM for           addusdens:    1996.97 MB

     Dynamical RAM for          addusforce:    2100.48 MB

     Dynamical RAM for         addusstress:    2095.26 MB

     Estimated static dynamical RAM per process >       1.06 GB

     Estimated max dynamical RAM per process >       3.43 GB
     Generating pointlists ...
     new r_m :   0.1384 (alat units)  1.9821 (a.u.) for type    1
     new r_m :   0.2064 (alat units)  2.9564 (a.u.) for type    2
     new r_m :   0.1384 (alat units)  1.9821 (a.u.) for type    3

     Initial potential from superposition of free atoms

     starting charge      54.9996, renormalised to      55.0000
     Starting wfcs are   41 randomized atomic wfcs
     Checking if some PAW data can be deallocated... 

     total cpu time spent up to now is        8.1 secs

     per-process dynamical memory:  1727.0 Mb

     Self-consistent Calculation
[tb_dev] Currently allocated     1.26E+01 Mbytes, locked:    0 /  10
[tb_pin] Currently allocated     0.00E+00 Mbytes, locked:    0 /   0

     iteration #  1     ecut=    90.00 Ry     beta= 0.40
     Davidson diagonalization with overlap

---- Real-time Memory Report at c_bands before calling an iterative solver
          2020 MiB given to the printing process from OS
          1741 MiB allocation reported by mallinfo(arena+hblkhd)
         57141 MiB available memory on the node where the printing process lives
     GPU memory used/free/total (MiB): 2198 / 14082 / 16280
------------------
     ethr =  1.00E-02,  avg # of iterations =  1.0

     total cpu time spent up to now is       12.1 secs

     total energy              =   -1067.68203737 Ry
     estimated scf accuracy    <      10.81476531 Ry

     total magnetization       =     8.36 Bohr mag/cell
     absolute magnetization    =     8.37 Bohr mag/cell
[tb_dev] Currently allocated     1.26E+01 Mbytes, locked:    0 /   8
[tb_pin] Currently allocated     0.00E+00 Mbytes, locked:    0 /   0

     iteration #  2     ecut=    90.00 Ry     beta= 0.40
     Davidson diagonalization with overlap

---- Real-time Memory Report at c_bands before calling an iterative solver
          2284 MiB given to the printing process from OS
          1893 MiB allocation reported by mallinfo(arena+hblkhd)
         56989 MiB available memory on the node where the printing process lives
     GPU memory used/free/total (MiB): 4464 / 11816 / 16280
------------------
     ethr =  1.00E-02,  avg # of iterations =  5.0

     total cpu time spent up to now is       17.7 secs

     total energy              =   -1074.22554899 Ry
     estimated scf accuracy    <      19.96112435 Ry

     total magnetization       =     6.48 Bohr mag/cell
     absolute magnetization    =     6.50 Bohr mag/cell
[tb_dev] Currently allocated     1.26E+01 Mbytes, locked:    0 /   8
[tb_pin] Currently allocated     0.00E+00 Mbytes, locked:    0 /   0

     iteration #  3     ecut=    90.00 Ry     beta= 0.40
     Davidson diagonalization with overlap

---- Real-time Memory Report at c_bands before calling an iterative solver
          2429 MiB given to the printing process from OS
          1921 MiB allocation reported by mallinfo(arena+hblkhd)
         56960 MiB available memory on the node where the printing process lives
     GPU memory used/free/total (MiB): 4842 / 11438 / 16280
------------------
     ethr =  1.00E-02,  avg # of iterations =  4.0

     total cpu time spent up to now is       22.7 secs

     total energy              =   -1074.15723300 Ry
     estimated scf accuracy    <       5.50750187 Ry

     total magnetization       =     8.94 Bohr mag/cell
     absolute magnetization    =     8.95 Bohr mag/cell
[tb_dev] Currently allocated     1.26E+01 Mbytes, locked:    0 /   8
[tb_pin] Currently allocated     0.00E+00 Mbytes, locked:    0 /   0

     iteration #  4     ecut=    90.00 Ry     beta= 0.40
     Davidson diagonalization with overlap

---- Real-time Memory Report at c_bands before calling an iterative solver
          2571 MiB given to the printing process from OS
          1949 MiB allocation reported by mallinfo(arena+hblkhd)
         56930 MiB available memory on the node where the printing process lives
     GPU memory used/free/total (MiB): 5558 / 10722 / 16280
------------------
     ethr =  1.00E-02,  avg # of iterations =  1.1

     total cpu time spent up to now is       26.7 secs

     total energy              =   -1074.23494318 Ry
     estimated scf accuracy    <       2.33905590 Ry

     total magnetization       =     9.45 Bohr mag/cell
     absolute magnetization    =     9.46 Bohr mag/cell
[tb_dev] Currently allocated     1.26E+01 Mbytes, locked:    0 /   8
[tb_pin] Currently allocated     0.00E+00 Mbytes, locked:    0 /   0

     iteration #  5     ecut=    90.00 Ry     beta= 0.40
     Davidson diagonalization with overlap

---- Real-time Memory Report at c_bands before calling an iterative solver
          2665 MiB given to the printing process from OS
          1969 MiB allocation reported by mallinfo(arena+hblkhd)
         56913 MiB available memory on the node where the printing process lives
     GPU memory used/free/total (MiB): 5558 / 10722 / 16280
------------------
     ethr =  4.25E-03,  avg # of iterations =  4.7

     total cpu time spent up to now is       31.4 secs

     total energy              =   -1074.49763131 Ry
     estimated scf accuracy    <       1.51484752 Ry

     total magnetization       =    10.35 Bohr mag/cell
     absolute magnetization    =    10.36 Bohr mag/cell
[tb_dev] Currently allocated     1.26E+01 Mbytes, locked:    0 /   8
[tb_pin] Currently allocated     0.00E+00 Mbytes, locked:    0 /   0

     iteration #  6     ecut=    90.00 Ry     beta= 0.40
     Davidson diagonalization with overlap

---- Real-time Memory Report at c_bands before calling an iterative solver
          2762 MiB given to the printing process from OS
          1997 MiB allocation reported by mallinfo(arena+hblkhd)
         56882 MiB available memory on the node where the printing process lives
     GPU memory used/free/total (MiB): 5562 / 10718 / 16280
------------------
     ethr =  2.75E-03,  avg # of iterations =  1.1

     total cpu time spent up to now is       35.4 secs

     total energy              =   -1074.44160536 Ry
     estimated scf accuracy    <       1.86137440 Ry

     total magnetization       =    12.57 Bohr mag/cell
     absolute magnetization    =    12.58 Bohr mag/cell
[tb_dev] Currently allocated     1.26E+01 Mbytes, locked:    0 /   8
[tb_pin] Currently allocated     0.00E+00 Mbytes, locked:    0 /   0

     iteration #  7     ecut=    90.00 Ry     beta= 0.40
     Davidson diagonalization with overlap

---- Real-time Memory Report at c_bands before calling an iterative solver
          2818 MiB given to the printing process from OS
          2017 MiB allocation reported by mallinfo(arena+hblkhd)
         56864 MiB available memory on the node where the printing process lives
     GPU memory used/free/total (MiB): 5562 / 10718 / 16280
------------------
     ethr =  2.75E-03,  avg # of iterations =  1.0

     total cpu time spent up to now is       39.5 secs

     total energy              =   -1074.11509878 Ry
     estimated scf accuracy    <       1.50211033 Ry

     total magnetization       =    12.72 Bohr mag/cell
     absolute magnetization    =    12.72 Bohr mag/cell
[tb_dev] Currently allocated     1.26E+01 Mbytes, locked:    0 /   8
[tb_pin] Currently allocated     0.00E+00 Mbytes, locked:    0 /   0

     iteration #  8     ecut=    90.00 Ry     beta= 0.40
     Davidson diagonalization with overlap

---- Real-time Memory Report at c_bands before calling an iterative solver
          2874 MiB given to the printing process from OS
          2037 MiB allocation reported by mallinfo(arena+hblkhd)
         56844 MiB available memory on the node where the printing process lives
     GPU memory used/free/total (MiB): 5562 / 10718 / 16280
------------------
     ethr =  2.73E-03,  avg # of iterations =  4.6

     total cpu time spent up to now is       44.4 secs

     total energy              =   -1074.23602883 Ry
     estimated scf accuracy    <       0.64256357 Ry

     total magnetization       =    11.38 Bohr mag/cell
     absolute magnetization    =    11.57 Bohr mag/cell
[tb_dev] Currently allocated     1.26E+01 Mbytes, locked:    0 /   8
[tb_pin] Currently allocated     0.00E+00 Mbytes, locked:    0 /   0

     iteration #  9     ecut=    90.00 Ry     beta= 0.40
     Davidson diagonalization with overlap

---- Real-time Memory Report at c_bands before calling an iterative solver
          2930 MiB given to the printing process from OS
         -2037 MiB allocation reported by mallinfo(arena+hblkhd)
         56825 MiB available memory on the node where the printing process lives
     GPU memory used/free/total (MiB): 5562 / 10718 / 16280
------------------
     ethr =  1.17E-03,  avg # of iterations =  6.4

     total cpu time spent up to now is       50.2 secs

     total energy              =   -1074.90709348 Ry
     estimated scf accuracy    <      19.47774752 Ry

     total magnetization       =     9.16 Bohr mag/cell
     absolute magnetization    =    13.90 Bohr mag/cell
[tb_dev] Currently allocated     1.26E+01 Mbytes, locked:    0 /   8
[tb_pin] Currently allocated     0.00E+00 Mbytes, locked:    0 /   0

     iteration # 10     ecut=    90.00 Ry     beta= 0.40
     Davidson diagonalization with overlap

---- Real-time Memory Report at c_bands before calling an iterative solver
          2993 MiB given to the printing process from OS
         -2010 MiB allocation reported by mallinfo(arena+hblkhd)
         56797 MiB available memory on the node where the printing process lives
     GPU memory used/free/total (MiB): 5686 / 10594 / 16280
------------------
     ethr =  1.17E-03,  avg # of iterations =  1.1

     total cpu time spent up to now is       54.3 secs

     total energy              =   -1074.74898455 Ry
     estimated scf accuracy    <      19.33579107 Ry

     total magnetization       =     8.98 Bohr mag/cell
     absolute magnetization    =    14.18 Bohr mag/cell
[tb_dev] Currently allocated     1.26E+01 Mbytes, locked:    0 /   8
[tb_pin] Currently allocated     0.00E+00 Mbytes, locked:    0 /   0

     iteration # 11     ecut=    90.00 Ry     beta= 0.40
     Davidson diagonalization with overlap

---- Real-time Memory Report at c_bands before calling an iterative solver
          3022 MiB given to the printing process from OS
         -2004 MiB allocation reported by mallinfo(arena+hblkhd)
         56792 MiB available memory on the node where the printing process lives
     GPU memory used/free/total (MiB): 5686 / 10594 / 16280
------------------
     ethr =  1.17E-03,  avg # of iterations =  1.0

     total cpu time spent up to now is       58.4 secs

     total energy              =   -1074.68239049 Ry
     estimated scf accuracy    <       8.23441881 Ry

     total magnetization       =    13.00 Bohr mag/cell
     absolute magnetization    =    14.24 Bohr mag/cell
[tb_dev] Currently allocated     1.26E+01 Mbytes, locked:    0 /   8
[tb_pin] Currently allocated     0.00E+00 Mbytes, locked:    0 /   0

     iteration # 12     ecut=    90.00 Ry     beta= 0.40
     Davidson diagonalization with overlap

---- Real-time Memory Report at c_bands before calling an iterative solver
          3035 MiB given to the printing process from OS
         -1998 MiB allocation reported by mallinfo(arena+hblkhd)
         56788 MiB available memory on the node where the printing process lives
     GPU memory used/free/total (MiB): 5686 / 10594 / 16280
------------------
     ethr =  1.17E-03,  avg # of iterations =  1.0

     total cpu time spent up to now is       62.5 secs

     total energy              =   -1074.33707733 Ry
     estimated scf accuracy    <       5.13254546 Ry

     total magnetization       =    12.99 Bohr mag/cell
     absolute magnetization    =    14.81 Bohr mag/cell
[tb_dev] Currently allocated     1.26E+01 Mbytes, locked:    0 /   8
[tb_pin] Currently allocated     0.00E+00 Mbytes, locked:    0 /   0

     iteration # 13     ecut=    90.00 Ry     beta= 0.40
     Davidson diagonalization with overlap

---- Real-time Memory Report at c_bands before calling an iterative solver
          3041 MiB given to the printing process from OS
         -1993 MiB allocation reported by mallinfo(arena+hblkhd)
         56783 MiB available memory on the node where the printing process lives
     GPU memory used/free/total (MiB): 5686 / 10594 / 16280
------------------
     ethr =  1.17E-03,  avg # of iterations =  4.7

     total cpu time spent up to now is       67.4 secs

     total energy              =   -1074.47923782 Ry
     estimated scf accuracy    <       0.92649742 Ry

     total magnetization       =    13.00 Bohr mag/cell
     absolute magnetization    =    15.23 Bohr mag/cell
[tb_dev] Currently allocated     1.26E+01 Mbytes, locked:    0 /   8
[tb_pin] Currently allocated     0.00E+00 Mbytes, locked:    0 /   0

     iteration # 14     ecut=    90.00 Ry     beta= 0.40
     Davidson diagonalization with overlap

---- Real-time Memory Report at c_bands before calling an iterative solver
          3046 MiB given to the printing process from OS
         -1987 MiB allocation reported by mallinfo(arena+hblkhd)
         56772 MiB available memory on the node where the printing process lives
     GPU memory used/free/total (MiB): 5686 / 10594 / 16280
------------------
     ethr =  1.17E-03,  avg # of iterations =  1.4

     total cpu time spent up to now is       71.5 secs

     total energy              =   -1074.41747880 Ry
     estimated scf accuracy    <       0.81245920 Ry

     total magnetization       =    13.00 Bohr mag/cell
     absolute magnetization    =    15.26 Bohr mag/cell
[tb_dev] Currently allocated     1.26E+01 Mbytes, locked:    0 /   8
[tb_pin] Currently allocated     0.00E+00 Mbytes, locked:    0 /   0

     iteration # 15     ecut=    90.00 Ry     beta= 0.40
     Davidson diagonalization with overlap

---- Real-time Memory Report at c_bands before calling an iterative solver
          3052 MiB given to the printing process from OS
         -1981 MiB allocation reported by mallinfo(arena+hblkhd)
         56770 MiB available memory on the node where the printing process lives
     GPU memory used/free/total (MiB): 5686 / 10594 / 16280
------------------
     ethr =  1.17E-03,  avg # of iterations =  2.6

     total cpu time spent up to now is       76.0 secs

     total energy              =   -1074.46549993 Ry
     estimated scf accuracy    <       0.05472499 Ry

     total magnetization       =    13.00 Bohr mag/cell
     absolute magnetization    =    15.63 Bohr mag/cell
[tb_dev] Currently allocated     1.26E+01 Mbytes, locked:    0 /   8
[tb_pin] Currently allocated     0.00E+00 Mbytes, locked:    0 /   0

     iteration # 16     ecut=    90.00 Ry     beta= 0.40
     Davidson diagonalization with overlap

---- Real-time Memory Report at c_bands before calling an iterative solver
          3057 MiB given to the printing process from OS
         -1976 MiB allocation reported by mallinfo(arena+hblkhd)
         56766 MiB available memory on the node where the printing process lives
     GPU memory used/free/total (MiB): 5686 / 10594 / 16280
------------------
     ethr =  9.95E-05,  avg # of iterations =  6.8

     total cpu time spent up to now is       81.9 secs

     total energy              =   -1074.49810179 Ry
     estimated scf accuracy    <       0.17572525 Ry

     total magnetization       =    13.00 Bohr mag/cell
     absolute magnetization    =    16.46 Bohr mag/cell
[tb_dev] Currently allocated     1.26E+01 Mbytes, locked:    0 /   8
[tb_pin] Currently allocated     0.00E+00 Mbytes, locked:    0 /   0

     iteration # 17     ecut=    90.00 Ry     beta= 0.40
     Davidson diagonalization with overlap

---- Real-time Memory Report at c_bands before calling an iterative solver
          3063 MiB given to the printing process from OS
         -1970 MiB allocation reported by mallinfo(arena+hblkhd)
         56761 MiB available memory on the node where the printing process lives
     GPU memory used/free/total (MiB): 5686 / 10594 / 16280
------------------
     ethr =  9.95E-05,  avg # of iterations =  1.1

     total cpu time spent up to now is       85.9 secs

     total energy              =   -1074.49069773 Ry
     estimated scf accuracy    <       0.20705366 Ry

     total magnetization       =    13.00 Bohr mag/cell
     absolute magnetization    =    16.40 Bohr mag/cell
[tb_dev] Currently allocated     1.26E+01 Mbytes, locked:    0 /   8
[tb_pin] Currently allocated     0.00E+00 Mbytes, locked:    0 /   0

     iteration # 18     ecut=    90.00 Ry     beta= 0.40
     Davidson diagonalization with overlap

---- Real-time Memory Report at c_bands before calling an iterative solver
          3069 MiB given to the printing process from OS
         -1964 MiB allocation reported by mallinfo(arena+hblkhd)
         56752 MiB available memory on the node where the printing process lives
     GPU memory used/free/total (MiB): 5686 / 10594 / 16280
------------------
     ethr =  9.95E-05,  avg # of iterations =  3.1

     total cpu time spent up to now is       90.6 secs

     total energy              =   -1074.50445358 Ry
     estimated scf accuracy    <       0.01867086 Ry

     total magnetization       =    13.00 Bohr mag/cell
     absolute magnetization    =    16.48 Bohr mag/cell
[tb_dev] Currently allocated     1.26E+01 Mbytes, locked:    0 /   8
[tb_pin] Currently allocated     0.00E+00 Mbytes, locked:    0 /   0

     iteration # 19     ecut=    90.00 Ry     beta= 0.40
     Davidson diagonalization with overlap

---- Real-time Memory Report at c_bands before calling an iterative solver
          3075 MiB given to the printing process from OS
         -1959 MiB allocation reported by mallinfo(arena+hblkhd)
         56750 MiB available memory on the node where the printing process lives
     GPU memory used/free/total (MiB): 5686 / 10594 / 16280
------------------
     ethr =  3.39E-05,  avg # of iterations =  3.3

     total cpu time spent up to now is       95.2 secs

     total energy              =   -1074.50733868 Ry
     estimated scf accuracy    <       0.03595523 Ry

     total magnetization       =    13.00 Bohr mag/cell
     absolute magnetization    =    16.51 Bohr mag/cell
[tb_dev] Currently allocated     1.26E+01 Mbytes, locked:    0 /   8
[tb_pin] Currently allocated     0.00E+00 Mbytes, locked:    0 /   0

     iteration # 20     ecut=    90.00 Ry     beta= 0.40
     Davidson diagonalization with overlap

---- Real-time Memory Report at c_bands before calling an iterative solver
          3080 MiB given to the printing process from OS
         -1952 MiB allocation reported by mallinfo(arena+hblkhd)
         56742 MiB available memory on the node where the printing process lives
     GPU memory used/free/total (MiB): 5686 / 10594 / 16280
------------------
     ethr =  3.39E-05,  avg # of iterations =  1.0

     total cpu time spent up to now is       99.4 secs

     total energy              =   -1074.50993236 Ry
     estimated scf accuracy    <       0.03980346 Ry

     total magnetization       =    13.00 Bohr mag/cell
     absolute magnetization    =    16.49 Bohr mag/cell
[tb_dev] Currently allocated     1.26E+01 Mbytes, locked:    0 /   8
[tb_pin] Currently allocated     0.00E+00 Mbytes, locked:    0 /   0

     iteration # 21     ecut=    90.00 Ry     beta= 0.40
     Davidson diagonalization with overlap

---- Real-time Memory Report at c_bands before calling an iterative solver
          3086 MiB given to the printing process from OS
         -1946 MiB allocation reported by mallinfo(arena+hblkhd)
         56735 MiB available memory on the node where the printing process lives
     GPU memory used/free/total (MiB): 5686 / 10594 / 16280
------------------
     ethr =  3.39E-05,  avg # of iterations =  1.1

     total cpu time spent up to now is      103.5 secs

     total energy              =   -1074.51064785 Ry
     estimated scf accuracy    <       0.03864248 Ry

     total magnetization       =    13.00 Bohr mag/cell
     absolute magnetization    =    16.50 Bohr mag/cell
[tb_dev] Currently allocated     1.26E+01 Mbytes, locked:    0 /   8
[tb_pin] Currently allocated     0.00E+00 Mbytes, locked:    0 /   0

     iteration # 22     ecut=    90.00 Ry     beta= 0.40
     Davidson diagonalization with overlap

---- Real-time Memory Report at c_bands before calling an iterative solver
          3093 MiB given to the printing process from OS
         -1940 MiB allocation reported by mallinfo(arena+hblkhd)
         56733 MiB available memory on the node where the printing process lives
     GPU memory used/free/total (MiB): 5686 / 10594 / 16280
------------------
     ethr =  3.39E-05,  avg # of iterations =  1.3

     total cpu time spent up to now is      107.6 secs

     total energy              =   -1074.51078749 Ry
     estimated scf accuracy    <       0.04042434 Ry

     total magnetization       =    13.00 Bohr mag/cell
     absolute magnetization    =    16.60 Bohr mag/cell
[tb_dev] Currently allocated     1.26E+01 Mbytes, locked:    0 /   8
[tb_pin] Currently allocated     0.00E+00 Mbytes, locked:    0 /   0

     iteration # 23     ecut=    90.00 Ry     beta= 0.40
     Davidson diagonalization with overlap

---- Real-time Memory Report at c_bands before calling an iterative solver
          3099 MiB given to the printing process from OS
         -1934 MiB allocation reported by mallinfo(arena+hblkhd)
         56724 MiB available memory on the node where the printing process lives
     GPU memory used/free/total (MiB): 5686 / 10594 / 16280
------------------
     ethr =  3.39E-05,  avg # of iterations =  1.1

     total cpu time spent up to now is      111.7 secs

     total energy              =   -1074.50994260 Ry
     estimated scf accuracy    <       0.03771924 Ry

     total magnetization       =    13.00 Bohr mag/cell
     absolute magnetization    =    16.60 Bohr mag/cell
[tb_dev] Currently allocated     1.26E+01 Mbytes, locked:    0 /   8
[tb_pin] Currently allocated     0.00E+00 Mbytes, locked:    0 /   0

     iteration # 24     ecut=    90.00 Ry     beta= 0.40
     Davidson diagonalization with overlap

---- Real-time Memory Report at c_bands before calling an iterative solver
          3105 MiB given to the printing process from OS
         -1928 MiB allocation reported by mallinfo(arena+hblkhd)
         56718 MiB available memory on the node where the printing process lives
     GPU memory used/free/total (MiB): 5686 / 10594 / 16280
------------------
     ethr =  3.39E-05,  avg # of iterations =  1.0

     total cpu time spent up to now is      115.8 secs

     total energy              =   -1074.50348215 Ry
     estimated scf accuracy    <       0.02812415 Ry

     total magnetization       =    13.00 Bohr mag/cell
     absolute magnetization    =    16.62 Bohr mag/cell
[tb_dev] Currently allocated     1.26E+01 Mbytes, locked:    0 /   8
[tb_pin] Currently allocated     0.00E+00 Mbytes, locked:    0 /   0

     iteration # 25     ecut=    90.00 Ry     beta= 0.40
     Davidson diagonalization with overlap

---- Real-time Memory Report at c_bands before calling an iterative solver
          3111 MiB given to the printing process from OS
         -1921 MiB allocation reported by mallinfo(arena+hblkhd)
         56711 MiB available memory on the node where the printing process lives
     GPU memory used/free/total (MiB): 5686 / 10594 / 16280
------------------
     ethr =  3.39E-05,  avg # of iterations =  6.3

     total cpu time spent up to now is      121.4 secs

     total energy              =   -1074.49751510 Ry
     estimated scf accuracy    <       0.64273328 Ry

     total magnetization       =    13.00 Bohr mag/cell
     absolute magnetization    =    15.86 Bohr mag/cell
[tb_dev] Currently allocated     1.26E+01 Mbytes, locked:    0 /   8
[tb_pin] Currently allocated     0.00E+00 Mbytes, locked:    0 /   0

     iteration # 26     ecut=    90.00 Ry     beta= 0.40
     Davidson diagonalization with overlap

---- Real-time Memory Report at c_bands before calling an iterative solver
          3117 MiB given to the printing process from OS
         -1915 MiB allocation reported by mallinfo(arena+hblkhd)
         56707 MiB available memory on the node where the printing process lives
     GPU memory used/free/total (MiB): 5686 / 10594 / 16280
------------------
     ethr =  3.39E-05,  avg # of iterations =  5.5

     total cpu time spent up to now is      126.8 secs

     total energy              =   -1074.51063084 Ry
     estimated scf accuracy    <       0.00446031 Ry

     total magnetization       =    13.00 Bohr mag/cell
     absolute magnetization    =    16.43 Bohr mag/cell
[tb_dev] Currently allocated     1.26E+01 Mbytes, locked:    0 /   8
[tb_pin] Currently allocated     0.00E+00 Mbytes, locked:    0 /   0

     iteration # 27     ecut=    90.00 Ry     beta= 0.40
     Davidson diagonalization with overlap

---- Real-time Memory Report at c_bands before calling an iterative solver
          3123 MiB given to the printing process from OS
         -1909 MiB allocation reported by mallinfo(arena+hblkhd)
         56700 MiB available memory on the node where the printing process lives
     GPU memory used/free/total (MiB): 5686 / 10594 / 16280
------------------
     ethr =  8.11E-06,  avg # of iterations =  2.8

     total cpu time spent up to now is      131.3 secs

     total energy              =   -1074.51075043 Ry
     estimated scf accuracy    <       0.00345291 Ry

     total magnetization       =    13.00 Bohr mag/cell
     absolute magnetization    =    16.43 Bohr mag/cell
[tb_dev] Currently allocated     1.26E+01 Mbytes, locked:    0 /   8
[tb_pin] Currently allocated     0.00E+00 Mbytes, locked:    0 /   0

     iteration # 28     ecut=    90.00 Ry     beta= 0.40
     Davidson diagonalization with overlap

---- Real-time Memory Report at c_bands before calling an iterative solver
          3131 MiB given to the printing process from OS
         -1903 MiB allocation reported by mallinfo(arena+hblkhd)
         56692 MiB available memory on the node where the printing process lives
     GPU memory used/free/total (MiB): 5686 / 10594 / 16280
------------------
     ethr =  6.28E-06,  avg # of iterations =  1.0

     total cpu time spent up to now is      135.5 secs

     total energy              =   -1074.51089250 Ry
     estimated scf accuracy    <       0.00362019 Ry

     total magnetization       =    13.00 Bohr mag/cell
     absolute magnetization    =    16.43 Bohr mag/cell
[tb_dev] Currently allocated     1.26E+01 Mbytes, locked:    0 /   8
[tb_pin] Currently allocated     0.00E+00 Mbytes, locked:    0 /   0

     iteration # 29     ecut=    90.00 Ry     beta= 0.40
     Davidson diagonalization with overlap

---- Real-time Memory Report at c_bands before calling an iterative solver
          3136 MiB given to the printing process from OS
         -1897 MiB allocation reported by mallinfo(arena+hblkhd)
         56689 MiB available memory on the node where the printing process lives
     GPU memory used/free/total (MiB): 5686 / 10594 / 16280
------------------
     ethr =  6.28E-06,  avg # of iterations =  1.3

     total cpu time spent up to now is      139.6 secs

     total energy              =   -1074.51050238 Ry
     estimated scf accuracy    <       0.00790680 Ry

     total magnetization       =    13.00 Bohr mag/cell
     absolute magnetization    =    16.47 Bohr mag/cell
[tb_dev] Currently allocated     1.26E+01 Mbytes, locked:    0 /   8
[tb_pin] Currently allocated     0.00E+00 Mbytes, locked:    0 /   0

     iteration # 30     ecut=    90.00 Ry     beta= 0.40
     Davidson diagonalization with overlap

---- Real-time Memory Report at c_bands before calling an iterative solver
          3142 MiB given to the printing process from OS
         -1890 MiB allocation reported by mallinfo(arena+hblkhd)
         56681 MiB available memory on the node where the printing process lives
     GPU memory used/free/total (MiB): 5686 / 10594 / 16280
------------------
     ethr =  6.28E-06,  avg # of iterations =  1.1

     total cpu time spent up to now is      143.8 secs

     total energy              =   -1074.51050432 Ry
     estimated scf accuracy    <       0.00405240 Ry

     total magnetization       =    13.00 Bohr mag/cell
     absolute magnetization    =    16.48 Bohr mag/cell
[tb_dev] Currently allocated     1.26E+01 Mbytes, locked:    0 /   8
[tb_pin] Currently allocated     0.00E+00 Mbytes, locked:    0 /   0

     iteration # 31     ecut=    90.00 Ry     beta= 0.40
     Davidson diagonalization with overlap

---- Real-time Memory Report at c_bands before calling an iterative solver
          3148 MiB given to the printing process from OS
         -1884 MiB allocation reported by mallinfo(arena+hblkhd)
         56676 MiB available memory on the node where the printing process lives
     GPU memory used/free/total (MiB): 5686 / 10594 / 16280
------------------
     ethr =  6.28E-06,  avg # of iterations =  1.1

     total cpu time spent up to now is      147.8 secs

     total energy              =   -1074.51039674 Ry
     estimated scf accuracy    <       0.00323543 Ry

     total magnetization       =    13.00 Bohr mag/cell
     absolute magnetization    =    16.47 Bohr mag/cell
[tb_dev] Currently allocated     1.26E+01 Mbytes, locked:    0 /   8
[tb_pin] Currently allocated     0.00E+00 Mbytes, locked:    0 /   0

     iteration # 32     ecut=    90.00 Ry     beta= 0.40
     Davidson diagonalization with overlap

---- Real-time Memory Report at c_bands before calling an iterative solver
          3154 MiB given to the printing process from OS
         -1878 MiB allocation reported by mallinfo(arena+hblkhd)
         56668 MiB available memory on the node where the printing process lives
     GPU memory used/free/total (MiB): 5686 / 10594 / 16280
------------------
     ethr =  5.88E-06,  avg # of iterations =  1.2

     total cpu time spent up to now is      152.0 secs

     total energy              =   -1074.51042864 Ry
     estimated scf accuracy    <       0.00200570 Ry

     total magnetization       =    13.00 Bohr mag/cell
     absolute magnetization    =    16.47 Bohr mag/cell
[tb_dev] Currently allocated     1.26E+01 Mbytes, locked:    0 /   8
[tb_pin] Currently allocated     0.00E+00 Mbytes, locked:    0 /   0

     iteration # 33     ecut=    90.00 Ry     beta= 0.40
     Davidson diagonalization with overlap

---- Real-time Memory Report at c_bands before calling an iterative solver
          3162 MiB given to the printing process from OS
         -1872 MiB allocation reported by mallinfo(arena+hblkhd)
         56664 MiB available memory on the node where the printing process lives
     GPU memory used/free/total (MiB): 5686 / 10594 / 16280
------------------
     ethr =  3.65E-06,  avg # of iterations =  1.4

     total cpu time spent up to now is      156.1 secs

     total energy              =   -1074.51045259 Ry
     estimated scf accuracy    <       0.00114746 Ry

     total magnetization       =    13.00 Bohr mag/cell
     absolute magnetization    =    16.45 Bohr mag/cell
[tb_dev] Currently allocated     1.26E+01 Mbytes, locked:    0 /   8
[tb_pin] Currently allocated     0.00E+00 Mbytes, locked:    0 /   0

     iteration # 34     ecut=    90.00 Ry     beta= 0.40
     Davidson diagonalization with overlap

---- Real-time Memory Report at c_bands before calling an iterative solver
          3168 MiB given to the printing process from OS
         -1865 MiB allocation reported by mallinfo(arena+hblkhd)
         56658 MiB available memory on the node where the printing process lives
     GPU memory used/free/total (MiB): 5686 / 10594 / 16280
------------------
     ethr =  2.09E-06,  avg # of iterations =  5.8

     total cpu time spent up to now is      161.4 secs

     total energy              =   -1074.51248801 Ry
     estimated scf accuracy    <       0.03843010 Ry

     total magnetization       =    13.00 Bohr mag/cell
     absolute magnetization    =    16.18 Bohr mag/cell
[tb_dev] Currently allocated     1.26E+01 Mbytes, locked:    0 /   8
[tb_pin] Currently allocated     0.00E+00 Mbytes, locked:    0 /   0

     iteration # 35     ecut=    90.00 Ry     beta= 0.40
     Davidson diagonalization with overlap

---- Real-time Memory Report at c_bands before calling an iterative solver
          3173 MiB given to the printing process from OS
         -1859 MiB allocation reported by mallinfo(arena+hblkhd)
         56648 MiB available memory on the node where the printing process lives
     GPU memory used/free/total (MiB): 5686 / 10594 / 16280
------------------
     ethr =  2.09E-06,  avg # of iterations =  3.7

     total cpu time spent up to now is      166.0 secs

     total energy              =   -1074.51305435 Ry
     estimated scf accuracy    <       0.11502561 Ry

     total magnetization       =    13.00 Bohr mag/cell
     absolute magnetization    =    16.04 Bohr mag/cell
[tb_dev] Currently allocated     1.26E+01 Mbytes, locked:    0 /   8
[tb_pin] Currently allocated     0.00E+00 Mbytes, locked:    0 /   0

     iteration # 36     ecut=    90.00 Ry     beta= 0.40
     Davidson diagonalization with overlap

---- Real-time Memory Report at c_bands before calling an iterative solver
          3179 MiB given to the printing process from OS
         -1853 MiB allocation reported by mallinfo(arena+hblkhd)
         56645 MiB available memory on the node where the printing process lives
     GPU memory used/free/total (MiB): 5686 / 10594 / 16280
------------------
     ethr =  2.09E-06,  avg # of iterations =  1.1

     total cpu time spent up to now is      170.1 secs

     total energy              =   -1074.51331790 Ry
     estimated scf accuracy    <       0.11549582 Ry

     total magnetization       =    13.00 Bohr mag/cell
     absolute magnetization    =    16.04 Bohr mag/cell
[tb_dev] Currently allocated     1.26E+01 Mbytes, locked:    0 /   8
[tb_pin] Currently allocated     0.00E+00 Mbytes, locked:    0 /   0

     iteration # 37     ecut=    90.00 Ry     beta= 0.40
     Davidson diagonalization with overlap

---- Real-time Memory Report at c_bands before calling an iterative solver
          3186 MiB given to the printing process from OS
         -1847 MiB allocation reported by mallinfo(arena+hblkhd)
         56640 MiB available memory on the node where the printing process lives
     GPU memory used/free/total (MiB): 5686 / 10594 / 16280
------------------
     ethr =  2.09E-06,  avg # of iterations =  1.1

     total cpu time spent up to now is      174.2 secs

     total energy              =   -1074.51274975 Ry
     estimated scf accuracy    <       0.11762242 Ry

     total magnetization       =    13.00 Bohr mag/cell
     absolute magnetization    =    16.04 Bohr mag/cell
[tb_dev] Currently allocated     1.26E+01 Mbytes, locked:    0 /   8
[tb_pin] Currently allocated     0.00E+00 Mbytes, locked:    0 /   0

     iteration # 38     ecut=    90.00 Ry     beta= 0.40
     Davidson diagonalization with overlap

---- Real-time Memory Report at c_bands before calling an iterative solver
          3193 MiB given to the printing process from OS
         -1841 MiB allocation reported by mallinfo(arena+hblkhd)
         56632 MiB available memory on the node where the printing process lives
     GPU memory used/free/total (MiB): 5686 / 10594 / 16280
------------------
     ethr =  2.09E-06,  avg # of iterations =  1.3

     total cpu time spent up to now is      178.4 secs

     total energy              =   -1074.51242752 Ry
     estimated scf accuracy    <       0.11421524 Ry

     total magnetization       =    13.00 Bohr mag/cell
     absolute magnetization    =    16.04 Bohr mag/cell
[tb_dev] Currently allocated     1.26E+01 Mbytes, locked:    0 /   8
[tb_pin] Currently allocated     0.00E+00 Mbytes, locked:    0 /   0

     iteration # 39     ecut=    90.00 Ry     beta= 0.40
     Davidson diagonalization with overlap

---- Real-time Memory Report at c_bands before calling an iterative solver
          3199 MiB given to the printing process from OS
         -1834 MiB allocation reported by mallinfo(arena+hblkhd)
         56625 MiB available memory on the node where the printing process lives
     GPU memory used/free/total (MiB): 5686 / 10594 / 16280
------------------
     ethr =  2.09E-06,  avg # of iterations =  1.0

     total cpu time spent up to now is      182.5 secs

     total energy              =   -1074.51187738 Ry
     estimated scf accuracy    <       0.11163615 Ry

     total magnetization       =    13.00 Bohr mag/cell
     absolute magnetization    =    16.04 Bohr mag/cell
[tb_dev] Currently allocated     1.26E+01 Mbytes, locked:    0 /   8
[tb_pin] Currently allocated     0.00E+00 Mbytes, locked:    0 /   0

     iteration # 40     ecut=    90.00 Ry     beta= 0.40
     Davidson diagonalization with overlap

---- Real-time Memory Report at c_bands before calling an iterative solver
          3205 MiB given to the printing process from OS
         -1828 MiB allocation reported by mallinfo(arena+hblkhd)
         56621 MiB available memory on the node where the printing process lives
     GPU memory used/free/total (MiB): 5686 / 10594 / 16280
------------------
     ethr =  2.09E-06,  avg # of iterations =  1.0

     total cpu time spent up to now is      186.5 secs

     total energy              =   -1074.50944936 Ry
     estimated scf accuracy    <       0.10783906 Ry

     total magnetization       =    13.00 Bohr mag/cell
     absolute magnetization    =    16.04 Bohr mag/cell
[tb_dev] Currently allocated     1.26E+01 Mbytes, locked:    0 /   8
[tb_pin] Currently allocated     0.00E+00 Mbytes, locked:    0 /   0

     iteration # 41     ecut=    90.00 Ry     beta= 0.40
     Davidson diagonalization with overlap

---- Real-time Memory Report at c_bands before calling an iterative solver
          3211 MiB given to the printing process from OS
         -1822 MiB allocation reported by mallinfo(arena+hblkhd)
         56615 MiB available memory on the node where the printing process lives
     GPU memory used/free/total (MiB): 5686 / 10594 / 16280
------------------
     ethr =  2.09E-06,  avg # of iterations =  5.2

     total cpu time spent up to now is      191.6 secs

     total energy              =   -1074.51094066 Ry
     estimated scf accuracy    <       0.00162653 Ry

     total magnetization       =    13.00 Bohr mag/cell
     absolute magnetization    =    16.32 Bohr mag/cell
[tb_dev] Currently allocated     1.26E+01 Mbytes, locked:    0 /   8
[tb_pin] Currently allocated     0.00E+00 Mbytes, locked:    0 /   0

     iteration # 42     ecut=    90.00 Ry     beta= 0.40
     Davidson diagonalization with overlap

---- Real-time Memory Report at c_bands before calling an iterative solver
          3217 MiB given to the printing process from OS
         -1816 MiB allocation reported by mallinfo(arena+hblkhd)
         56606 MiB available memory on the node where the printing process lives
     GPU memory used/free/total (MiB): 5686 / 10594 / 16280
------------------
     ethr =  2.09E-06,  avg # of iterations =  1.0

     total cpu time spent up to now is      195.7 secs

     total energy              =   -1074.51092038 Ry
     estimated scf accuracy    <       0.00234355 Ry

     total magnetization       =    13.00 Bohr mag/cell
     absolute magnetization    =    16.32 Bohr mag/cell
[tb_dev] Currently allocated     1.26E+01 Mbytes, locked:    0 /   8
[tb_pin] Currently allocated     0.00E+00 Mbytes, locked:    0 /   0

     iteration # 43     ecut=    90.00 Ry     beta= 0.40
     Davidson diagonalization with overlap

---- Real-time Memory Report at c_bands before calling an iterative solver
          3224 MiB given to the printing process from OS
         -1810 MiB allocation reported by mallinfo(arena+hblkhd)
         56602 MiB available memory on the node where the printing process lives
     GPU memory used/free/total (MiB): 5686 / 10594 / 16280
------------------
     ethr =  2.09E-06,  avg # of iterations =  1.0

     total cpu time spent up to now is      199.7 secs

     total energy              =   -1074.51087567 Ry
     estimated scf accuracy    <       0.00213675 Ry

     total magnetization       =    13.00 Bohr mag/cell
     absolute magnetization    =    16.33 Bohr mag/cell
[tb_dev] Currently allocated     1.26E+01 Mbytes, locked:    0 /   8
[tb_pin] Currently allocated     0.00E+00 Mbytes, locked:    0 /   0

     iteration # 44     ecut=    90.00 Ry     beta= 0.40
     Davidson diagonalization with overlap

---- Real-time Memory Report at c_bands before calling an iterative solver
          3230 MiB given to the printing process from OS
         -1803 MiB allocation reported by mallinfo(arena+hblkhd)
         56595 MiB available memory on the node where the printing process lives
     GPU memory used/free/total (MiB): 5686 / 10594 / 16280
------------------
     ethr =  2.09E-06,  avg # of iterations =  1.0

     total cpu time spent up to now is      203.8 secs

     total energy              =   -1074.51086749 Ry
     estimated scf accuracy    <       0.00187105 Ry

     total magnetization       =    13.00 Bohr mag/cell
     absolute magnetization    =    16.33 Bohr mag/cell
[tb_dev] Currently allocated     1.26E+01 Mbytes, locked:    0 /   8
[tb_pin] Currently allocated     0.00E+00 Mbytes, locked:    0 /   0

     iteration # 45     ecut=    90.00 Ry     beta= 0.40
     Davidson diagonalization with overlap

---- Real-time Memory Report at c_bands before calling an iterative solver
          3236 MiB given to the printing process from OS
         -1797 MiB allocation reported by mallinfo(arena+hblkhd)
         56589 MiB available memory on the node where the printing process lives
     GPU memory used/free/total (MiB): 5686 / 10594 / 16280
------------------
     ethr =  2.09E-06,  avg # of iterations =  1.0

     total cpu time spent up to now is      207.9 secs

     total energy              =   -1074.51086441 Ry
     estimated scf accuracy    <       0.00179235 Ry

     total magnetization       =    13.00 Bohr mag/cell
     absolute magnetization    =    16.33 Bohr mag/cell
[tb_dev] Currently allocated     1.26E+01 Mbytes, locked:    0 /   8
[tb_pin] Currently allocated     0.00E+00 Mbytes, locked:    0 /   0

     iteration # 46     ecut=    90.00 Ry     beta= 0.40
     Davidson diagonalization with overlap

---- Real-time Memory Report at c_bands before calling an iterative solver
          3242 MiB given to the printing process from OS
         -1791 MiB allocation reported by mallinfo(arena+hblkhd)
         56581 MiB available memory on the node where the printing process lives
     GPU memory used/free/total (MiB): 5686 / 10594 / 16280
------------------
     ethr =  2.09E-06,  avg # of iterations =  1.0

     total cpu time spent up to now is      212.0 secs

     total energy              =   -1074.51086034 Ry
     estimated scf accuracy    <       0.00174633 Ry

     total magnetization       =    13.00 Bohr mag/cell
     absolute magnetization    =    16.33 Bohr mag/cell
[tb_dev] Currently allocated     1.26E+01 Mbytes, locked:    0 /   8
[tb_pin] Currently allocated     0.00E+00 Mbytes, locked:    0 /   0

     iteration # 47     ecut=    90.00 Ry     beta= 0.40
     Davidson diagonalization with overlap

---- Real-time Memory Report at c_bands before calling an iterative solver
          3248 MiB given to the printing process from OS
         -1785 MiB allocation reported by mallinfo(arena+hblkhd)
         56576 MiB available memory on the node where the printing process lives
     GPU memory used/free/total (MiB): 5686 / 10594 / 16280
------------------
     ethr =  2.09E-06,  avg # of iterations =  1.0

     total cpu time spent up to now is      216.0 secs

     total energy              =   -1074.51086607 Ry
     estimated scf accuracy    <       0.00169708 Ry

     total magnetization       =    13.00 Bohr mag/cell
     absolute magnetization    =    16.33 Bohr mag/cell
[tb_dev] Currently allocated     1.26E+01 Mbytes, locked:    0 /   8
[tb_pin] Currently allocated     0.00E+00 Mbytes, locked:    0 /   0

     iteration # 48     ecut=    90.00 Ry     beta= 0.40
     Davidson diagonalization with overlap

---- Real-time Memory Report at c_bands before calling an iterative solver
          3262 MiB given to the printing process from OS
         -1778 MiB allocation reported by mallinfo(arena+hblkhd)
         56572 MiB available memory on the node where the printing process lives
     GPU memory used/free/total (MiB): 5686 / 10594 / 16280
------------------
     ethr =  2.09E-06,  avg # of iterations =  1.0

     total cpu time spent up to now is      220.0 secs

     total energy              =   -1074.51085292 Ry
     estimated scf accuracy    <       0.00170531 Ry

     total magnetization       =    13.00 Bohr mag/cell
     absolute magnetization    =    16.33 Bohr mag/cell
[tb_dev] Currently allocated     1.26E+01 Mbytes, locked:    0 /   8
[tb_pin] Currently allocated     0.00E+00 Mbytes, locked:    0 /   0

     iteration # 49     ecut=    90.00 Ry     beta= 0.40
     Davidson diagonalization with overlap

---- Real-time Memory Report at c_bands before calling an iterative solver
          3268 MiB given to the printing process from OS
         -1772 MiB allocation reported by mallinfo(arena+hblkhd)
         56562 MiB available memory on the node where the printing process lives
     GPU memory used/free/total (MiB): 5686 / 10594 / 16280
------------------
     ethr =  2.09E-06,  avg # of iterations =  1.0

     total cpu time spent up to now is      224.1 secs

     total energy              =   -1074.51041970 Ry
     estimated scf accuracy    <       0.00159012 Ry

     total magnetization       =    13.00 Bohr mag/cell
     absolute magnetization    =    16.33 Bohr mag/cell
[tb_dev] Currently allocated     1.26E+01 Mbytes, locked:    0 /   8
[tb_pin] Currently allocated     0.00E+00 Mbytes, locked:    0 /   0

     iteration # 50     ecut=    90.00 Ry     beta= 0.40
     Davidson diagonalization with overlap

---- Real-time Memory Report at c_bands before calling an iterative solver
          3274 MiB given to the printing process from OS
         -1766 MiB allocation reported by mallinfo(arena+hblkhd)
         56558 MiB available memory on the node where the printing process lives
     GPU memory used/free/total (MiB): 5686 / 10594 / 16280
------------------
     c_bands:  1 eigenvalues not converged
     c_bands:  2 eigenvalues not converged
     ethr =  2.09E-06,  avg # of iterations =  6.6

     total cpu time spent up to now is      229.8 secs

     total energy              =   -1074.51150312 Ry
     estimated scf accuracy    <       0.04028178 Ry

     total magnetization       =    13.00 Bohr mag/cell
     absolute magnetization    =    16.75 Bohr mag/cell
[tb_dev] Currently allocated     1.26E+01 Mbytes, locked:    0 /   8
[tb_pin] Currently allocated     0.00E+00 Mbytes, locked:    0 /   0

     iteration # 51     ecut=    90.00 Ry     beta= 0.40
     Davidson diagonalization with overlap

---- Real-time Memory Report at c_bands before calling an iterative solver
          3280 MiB given to the printing process from OS
         -1760 MiB allocation reported by mallinfo(arena+hblkhd)
         56551 MiB available memory on the node where the printing process lives
     GPU memory used/free/total (MiB): 5686 / 10594 / 16280
------------------
     ethr =  2.09E-06,  avg # of iterations =  1.1

     total cpu time spent up to now is      233.9 secs

     total energy              =   -1074.50917857 Ry
     estimated scf accuracy    <       0.03640932 Ry

     total magnetization       =    13.00 Bohr mag/cell
     absolute magnetization    =    16.75 Bohr mag/cell
[tb_dev] Currently allocated     1.26E+01 Mbytes, locked:    0 /   8
[tb_pin] Currently allocated     0.00E+00 Mbytes, locked:    0 /   0

     iteration # 52     ecut=    90.00 Ry     beta= 0.40
     Davidson diagonalization with overlap

---- Real-time Memory Report at c_bands before calling an iterative solver
          3286 MiB given to the printing process from OS
         -1754 MiB allocation reported by mallinfo(arena+hblkhd)
         56546 MiB available memory on the node where the printing process lives
     GPU memory used/free/total (MiB): 5686 / 10594 / 16280
------------------
     c_bands:  1 eigenvalues not converged
     c_bands:  1 eigenvalues not converged
     c_bands:  2 eigenvalues not converged
     ethr =  2.09E-06,  avg # of iterations =  7.4

     total cpu time spent up to now is      239.9 secs

     total energy              =   -1074.51033694 Ry
     estimated scf accuracy    <       0.01521643 Ry

     total magnetization       =    13.00 Bohr mag/cell
     absolute magnetization    =    16.25 Bohr mag/cell
[tb_dev] Currently allocated     1.26E+01 Mbytes, locked:    0 /   8
[tb_pin] Currently allocated     0.00E+00 Mbytes, locked:    0 /   0

     iteration # 53     ecut=    90.00 Ry     beta= 0.40
     Davidson diagonalization with overlap

---- Real-time Memory Report at c_bands before calling an iterative solver
          3292 MiB given to the printing process from OS
[...]
         56465 MiB available memory on the node where the printing process lives
     GPU memory used/free/total (MiB): 5686 / 10594 / 16280
------------------
     ethr =  2.16E-07,  avg # of iterations =  1.0

     total cpu time spent up to now is      296.1 secs

     total energy              =   -1074.51111497 Ry
     estimated scf accuracy    <       0.00109980 Ry

     total magnetization       =    13.00 Bohr mag/cell
     absolute magnetization    =    16.33 Bohr mag/cell
[tb_dev] Currently allocated     1.26E+01 Mbytes, locked:    0 /   8
[tb_pin] Currently allocated     0.00E+00 Mbytes, locked:    0 /   0

     iteration # 66     ecut=    90.00 Ry     beta= 0.40
     Davidson diagonalization with overlap

---- Real-time Memory Report at c_bands before calling an iterative solver
          3381 MiB given to the printing process from OS
         -1667 MiB allocation reported by mallinfo(arena+hblkhd)
         56459 MiB available memory on the node where the printing process lives
     GPU memory used/free/total (MiB): 5686 / 10594 / 16280
------------------
     ethr =  2.16E-07,  avg # of iterations =  1.0

     total cpu time spent up to now is      300.2 secs

     total energy              =   -1074.51115092 Ry
     estimated scf accuracy    <       0.00110406 Ry

     total magnetization       =    13.00 Bohr mag/cell
     absolute magnetization    =    16.33 Bohr mag/cell
[tb_dev] Currently allocated     1.26E+01 Mbytes, locked:    0 /   8
[tb_pin] Currently allocated     0.00E+00 Mbytes, locked:    0 /   0

     iteration # 67     ecut=    90.00 Ry     beta= 0.40
     Davidson diagonalization with overlap

---- Real-time Memory Report at c_bands before calling an iterative solver
          3387 MiB given to the printing process from OS
         -1660 MiB allocation reported by mallinfo(arena+hblkhd)
         56448 MiB available memory on the node where the printing process lives
     GPU memory used/free/total (MiB): 5686 / 10594 / 16280
------------------
     ethr =  2.16E-07,  avg # of iterations =  1.1

     total cpu time spent up to now is      304.3 secs

     total energy              =   -1074.51114831 Ry
     estimated scf accuracy    <       0.00130789 Ry

     total magnetization       =    13.00 Bohr mag/cell
     absolute magnetization    =    16.33 Bohr mag/cell
[tb_dev] Currently allocated     1.26E+01 Mbytes, locked:    0 /   8
[tb_pin] Currently allocated     0.00E+00 Mbytes, locked:    0 /   0

     iteration # 68     ecut=    90.00 Ry     beta= 0.40
     Davidson diagonalization with overlap

---- Real-time Memory Report at c_bands before calling an iterative solver
          3393 MiB given to the printing process from OS
         -1654 MiB allocation reported by mallinfo(arena+hblkhd)
         56446 MiB available memory on the node where the printing process lives
     GPU memory used/free/total (MiB): 5686 / 10594 / 16280
------------------
     ethr =  2.16E-07,  avg # of iterations =  1.0

     total cpu time spent up to now is      308.4 secs

     total energy              =   -1074.51116220 Ry
     estimated scf accuracy    <       0.00126914 Ry

     total magnetization       =    13.00 Bohr mag/cell
     absolute magnetization    =    16.33 Bohr mag/cell
[tb_dev] Currently allocated     1.26E+01 Mbytes, locked:    0 /   8
[tb_pin] Currently allocated     0.00E+00 Mbytes, locked:    0 /   0

     iteration # 69     ecut=    90.00 Ry     beta= 0.40
     Davidson diagonalization with overlap

---- Real-time Memory Report at c_bands before calling an iterative solver
          3400 MiB given to the printing process from OS
         -1648 MiB allocation reported by mallinfo(arena+hblkhd)
         56439 MiB available memory on the node where the printing process lives
     GPU memory used/free/total (MiB): 5686 / 10594 / 16280
------------------
     ethr =  2.16E-07,  avg # of iterations =  1.0

     total cpu time spent up to now is      312.4 secs

     total energy              =   -1074.51114742 Ry
     estimated scf accuracy    <       0.00138802 Ry

     total magnetization       =    13.00 Bohr mag/cell
     absolute magnetization    =    16.33 Bohr mag/cell
[tb_dev] Currently allocated     1.26E+01 Mbytes, locked:    0 /   8
[tb_pin] Currently allocated     0.00E+00 Mbytes, locked:    0 /   0

     iteration # 70     ecut=    90.00 Ry     beta= 0.40
     Davidson diagonalization with overlap

---- Real-time Memory Report at c_bands before calling an iterative solver
          3406 MiB given to the printing process from OS
         -1642 MiB allocation reported by mallinfo(arena+hblkhd)
         56433 MiB available memory on the node where the printing process lives
     GPU memory used/free/total (MiB): 5686 / 10594 / 16280
------------------
     ethr =  2.16E-07,  avg # of iterations =  1.0

     total cpu time spent up to now is      316.5 secs

     total energy              =   -1074.51110169 Ry
     estimated scf accuracy    <       0.00134550 Ry

     total magnetization       =    13.00 Bohr mag/cell
     absolute magnetization    =    16.33 Bohr mag/cell
[tb_dev] Currently allocated     1.26E+01 Mbytes, locked:    0 /   8
[tb_pin] Currently allocated     0.00E+00 Mbytes, locked:    0 /   0

     iteration # 71     ecut=    90.00 Ry     beta= 0.40
     Davidson diagonalization with overlap

---- Real-time Memory Report at c_bands before calling an iterative solver
          3420 MiB given to the printing process from OS
         -1635 MiB allocation reported by mallinfo(arena+hblkhd)
         56426 MiB available memory on the node where the printing process lives
     GPU memory used/free/total (MiB): 5686 / 10594 / 16280
------------------
     ethr =  2.16E-07,  avg # of iterations =  1.4

     total cpu time spent up to now is      320.6 secs

     total energy              =   -1074.51113327 Ry
     estimated scf accuracy    <       0.00115073 Ry

     total magnetization       =    13.00 Bohr mag/cell
     absolute magnetization    =    16.33 Bohr mag/cell
[tb_dev] Currently allocated     1.26E+01 Mbytes, locked:    0 /   8
[tb_pin] Currently allocated     0.00E+00 Mbytes, locked:    0 /   0

     iteration # 72     ecut=    90.00 Ry     beta= 0.40
     Davidson diagonalization with overlap

---- Real-time Memory Report at c_bands before calling an iterative solver
          3425 MiB given to the printing process from OS
         -1629 MiB allocation reported by mallinfo(arena+hblkhd)
         56423 MiB available memory on the node where the printing process lives
     GPU memory used/free/total (MiB): 5686 / 10594 / 16280
------------------
     ethr =  2.16E-07,  avg # of iterations =  1.0

     total cpu time spent up to now is      324.6 secs

     total energy              =   -1074.51078060 Ry
     estimated scf accuracy    <       0.00125985 Ry

     total magnetization       =    13.00 Bohr mag/cell
     absolute magnetization    =    16.33 Bohr mag/cell
[tb_dev] Currently allocated     1.26E+01 Mbytes, locked:    0 /   8
[tb_pin] Currently allocated     0.00E+00 Mbytes, locked:    0 /   0

     iteration # 73     ecut=    90.00 Ry     beta= 0.40
     Davidson diagonalization with overlap

---- Real-time Memory Report at c_bands before calling an iterative solver
          3431 MiB given to the printing process from OS
         -1623 MiB allocation reported by mallinfo(arena+hblkhd)
         56414 MiB available memory on the node where the printing process lives
     GPU memory used/free/total (MiB): 5686 / 10594 / 16280
------------------
     c_bands:  3 eigenvalues not converged
     c_bands:  4 eigenvalues not converged
     c_bands:  4 eigenvalues not converged
     c_bands:  2 eigenvalues not converged
     c_bands:  1 eigenvalues not converged
     c_bands:  4 eigenvalues not converged
     c_bands:  3 eigenvalues not converged
     ethr =  2.16E-07,  avg # of iterations = 11.0

     total cpu time spent up to now is      332.4 secs

     total energy              =   -1074.51108206 Ry
     estimated scf accuracy    <       0.03239655 Ry

     total magnetization       =    13.00 Bohr mag/cell
     absolute magnetization    =    16.69 Bohr mag/cell
[tb_dev] Currently allocated     1.26E+01 Mbytes, locked:    0 /   8
[tb_pin] Currently allocated     0.00E+00 Mbytes, locked:    0 /   0

     iteration # 74     ecut=    90.00 Ry     beta= 0.40
     Davidson diagonalization with overlap

---- Real-time Memory Report at c_bands before calling an iterative solver
          3438 MiB given to the printing process from OS
         -1617 MiB allocation reported by mallinfo(arena+hblkhd)
         56405 MiB available memory on the node where the printing process lives
     GPU memory used/free/total (MiB): 5686 / 10594 / 16280
------------------
     c_bands:  1 eigenvalues not converged
     c_bands:  1 eigenvalues not converged
     ethr =  2.16E-07,  avg # of iterations =  7.3

     total cpu time spent up to now is      338.6 secs

     total energy              =   -1074.51144533 Ry
     estimated scf accuracy    <       0.00873078 Ry

     total magnetization       =    13.00 Bohr mag/cell
     absolute magnetization    =    16.52 Bohr mag/cell
[tb_dev] Currently allocated     1.26E+01 Mbytes, locked:    0 /   8
[tb_pin] Currently allocated     0.00E+00 Mbytes, locked:    0 /   0

     iteration # 75     ecut=    90.00 Ry     beta= 0.40
     Davidson diagonalization with overlap

---- Real-time Memory Report at c_bands before calling an iterative solver
          3445 MiB given to the printing process from OS
         -1611 MiB allocation reported by mallinfo(arena+hblkhd)
         56403 MiB available memory on the node where the printing process lives
     GPU memory used/free/total (MiB): 5686 / 10594 / 16280
------------------
     ethr =  2.16E-07,  avg # of iterations =  1.2

     total cpu time spent up to now is      342.6 secs

     total energy              =   -1074.51118259 Ry
     estimated scf accuracy    <       0.00907938 Ry

     total magnetization       =    13.00 Bohr mag/cell
     absolute magnetization    =    16.52 Bohr mag/cell
[tb_dev] Currently allocated     1.26E+01 Mbytes, locked:    0 /   8
[tb_pin] Currently allocated     0.00E+00 Mbytes, locked:    0 /   0

     iteration # 76     ecut=    90.00 Ry     beta= 0.40
     Davidson diagonalization with overlap

---- Real-time Memory Report at c_bands before calling an iterative solver
          3451 MiB given to the printing process from OS
         -1604 MiB allocation reported by mallinfo(arena+hblkhd)
         56396 MiB available memory on the node where the printing process lives
     GPU memory used/free/total (MiB): 5686 / 10594 / 16280
------------------
     c_bands:  1 eigenvalues not converged
     ethr =  2.16E-07,  avg # of iterations =  4.2

     total cpu time spent up to now is      347.5 secs

     total energy              =   -1074.51126030 Ry
     estimated scf accuracy    <       0.00117238 Ry

     total magnetization       =    13.00 Bohr mag/cell
     absolute magnetization    =    16.41 Bohr mag/cell
[tb_dev] Currently allocated     1.26E+01 Mbytes, locked:    0 /   8
[tb_pin] Currently allocated     0.00E+00 Mbytes, locked:    0 /   0

     iteration # 77     ecut=    90.00 Ry     beta= 0.40
     Davidson diagonalization with overlap

---- Real-time Memory Report at c_bands before calling an iterative solver
          3456 MiB given to the printing process from OS
         -1598 MiB allocation reported by mallinfo(arena+hblkhd)
         56391 MiB available memory on the node where the printing process lives
     GPU memory used/free/total (MiB): 5686 / 10594 / 16280
------------------
     ethr =  2.16E-07,  avg # of iterations =  1.4

     total cpu time spent up to now is      351.7 secs

     total energy              =   -1074.51123344 Ry
     estimated scf accuracy    <       0.00121344 Ry

     total magnetization       =    13.00 Bohr mag/cell
     absolute magnetization    =    16.41 Bohr mag/cell
[tb_dev] Currently allocated     1.26E+01 Mbytes, locked:    0 /   8
[tb_pin] Currently allocated     0.00E+00 Mbytes, locked:    0 /   0

     iteration # 78     ecut=    90.00 Ry     beta= 0.40
     Davidson diagonalization with overlap

---- Real-time Memory Report at c_bands before calling an iterative solver
          3462 MiB given to the printing process from OS
         -1592 MiB allocation reported by mallinfo(arena+hblkhd)
         56382 MiB available memory on the node where the printing process lives
     GPU memory used/free/total (MiB): 5686 / 10594 / 16280
------------------
     ethr =  2.16E-07,  avg # of iterations =  1.9

     total cpu time spent up to now is      356.0 secs

     total energy              =   -1074.51123598 Ry
     estimated scf accuracy    <       0.00057688 Ry

     total magnetization       =    13.00 Bohr mag/cell
     absolute magnetization    =    16.39 Bohr mag/cell
[tb_dev] Currently allocated     1.26E+01 Mbytes, locked:    0 /   8
[tb_pin] Currently allocated     0.00E+00 Mbytes, locked:    0 /   0

     iteration # 79     ecut=    90.00 Ry     beta= 0.40
     Davidson diagonalization with overlap

---- Real-time Memory Report at c_bands before calling an iterative solver
          3469 MiB given to the printing process from OS
         -1586 MiB allocation reported by mallinfo(arena+hblkhd)
         56378 MiB available memory on the node where the printing process lives
     GPU memory used/free/total (MiB): 5686 / 10594 / 16280
------------------
     ethr =  2.16E-07,  avg # of iterations =  2.1

     total cpu time spent up to now is      360.3 secs

     total energy              =   -1074.51126312 Ry
     estimated scf accuracy    <       0.00021230 Ry

     total magnetization       =    13.00 Bohr mag/cell
     absolute magnetization    =    16.38 Bohr mag/cell
[tb_dev] Currently allocated     1.26E+01 Mbytes, locked:    0 /   8
[tb_pin] Currently allocated     0.00E+00 Mbytes, locked:    0 /   0

     iteration # 80     ecut=    90.00 Ry     beta= 0.40
     Davidson diagonalization with overlap

---- Real-time Memory Report at c_bands before calling an iterative solver
          3476 MiB given to the printing process from OS
         -1580 MiB allocation reported by mallinfo(arena+hblkhd)
         56370 MiB available memory on the node where the printing process lives
     GPU memory used/free/total (MiB): 5686 / 10594 / 16280
------------------
     ethr =  2.16E-07,  avg # of iterations =  1.0

     total cpu time spent up to now is      364.4 secs

     total energy              =   -1074.51127118 Ry
     estimated scf accuracy    <       0.00033624 Ry

     total magnetization       =    13.00 Bohr mag/cell
     absolute magnetization    =    16.38 Bohr mag/cell

     End of self-consistent calculation

     convergence NOT achieved after  80 iterations: stopping

     Writing config to output data dir ./out/aiida.save/
 
     init_run     :     29.67s CPU      7.32s WALL (       1 calls)
     electrons    :   1126.70s CPU    356.40s WALL (       1 calls)

     Called by init_run:
     wfcinit      :      2.29s CPU      3.06s WALL (       1 calls)
                                        3.06s GPU  (       1 calls)
     wfcinit:atom :      0.02s CPU      0.06s WALL (      40 calls)
                                        0.06s GPU  (      40 calls)
     wfcinit:wfcr :      1.30s CPU      1.82s WALL (      40 calls)
                                        1.82s GPU  (      40 calls)
     potinit      :     12.26s CPU      1.14s WALL (       1 calls)
     hinit0       :      8.21s CPU      1.70s WALL (       1 calls)

     Called by electrons:
     c_bands      :    214.19s CPU    208.63s WALL (      80 calls)
     sum_band     :     63.72s CPU     65.49s WALL (      80 calls)
     v_of_rho     :     82.24s CPU     10.87s WALL (      81 calls)
     v_h          :     16.36s CPU      1.52s WALL (      81 calls)
     v_xc         :     65.88s CPU      9.35s WALL (      81 calls)
     newd         :    137.04s CPU     12.83s WALL (      81 calls)
                                       12.83s GPU  (      81 calls)
     PAW_pot      :    449.52s CPU     41.06s WALL (      81 calls)
     mix_rho      :    132.95s CPU     12.92s WALL (      80 calls)

     Called by c_bands:
     init_us_2    :      8.20s CPU      9.58s WALL (    6440 calls)
     init_us_2:gp :      8.04s CPU      9.45s WALL (    6440 calls)
     cegterg      :    172.42s CPU    169.12s WALL (    3200 calls)

     Called by sum_band:
     sum_band:wei :      0.13s CPU      0.13s WALL (      80 calls)
                                        0.13s GPU  (      80 calls)
     sum_band:loo :     45.66s CPU     47.27s WALL (      80 calls)
                                       47.27s GPU  (      80 calls)
     sum_band:buf :     15.27s CPU     15.56s WALL (    3200 calls)
                                       15.54s GPU  (    3200 calls)
     sum_band:ini :      3.36s CPU      3.76s WALL (    3200 calls)
                                        3.74s GPU  (    3200 calls)
     sum_band:cal :      0.12s CPU      1.63s WALL (    3200 calls)
                                        1.38s GPU  (    3200 calls)
     sum_band:bec :      0.85s CPU      0.90s WALL (    3200 calls)
                                        0.88s GPU  (    3200 calls)
     addusdens    :     10.30s CPU     10.45s WALL (      80 calls)
                                       10.45s GPU  (      80 calls)
     addusd:skk   :      0.05s CPU      0.06s WALL (     240 calls)
                                        0.05s GPU  (     240 calls)

     Called by *egterg:
     cdiaghg      :     25.15s CPU     29.05s WALL (   10726 calls)
                                       28.98s GPU  (   10726 calls)
     cegterg:over :      4.55s CPU      4.73s WALL (    7526 calls)
     cegterg:upda :      3.61s CPU      3.95s WALL (    7526 calls)
     cegterg:last :      2.18s CPU      2.27s WALL (    4435 calls)
     h_psi        :    126.13s CPU    118.52s WALL (   10766 calls)
                                      118.28s GPU  (   10766 calls)
     s_psi        :      1.65s CPU      4.85s WALL (   10766 calls)
                                        4.35s GPU  (   10766 calls)
     g_psi        :      0.06s CPU      0.54s WALL (    7526 calls)
                                        0.49s GPU  (    7526 calls)

     Called by h_psi:
     h_psi:calbec :      0.41s CPU      4.23s WALL (   10766 calls)
                                        4.16s GPU  (   10766 calls)
     vloc_psi     :    113.02s CPU    107.35s WALL (   10766 calls)
                                      107.29s GPU  (   10766 calls)
     add_vuspsi   :      2.37s CPU      5.41s WALL (   10766 calls)
                                        5.34s GPU  (   10766 calls)

     General routines
     calbec       :      0.40s CPU      0.41s WALL (   13966 calls)
     fft          :      6.88s CPU      1.48s WALL (    2023 calls)
                                        1.03s GPU  (    1861 calls)
     ffts         :      0.92s CPU      0.21s WALL (     322 calls)
                                        0.04s GPU  (     160 calls)
     fftw         :      1.36s CPU     93.80s WALL (   57126 calls)
                                       93.34s GPU  (   57126 calls)
     interpolate  :     22.09s CPU      1.94s WALL (     162 calls)
     davcio       :      0.05s CPU      0.49s WALL (      58 calls)
 
     Parallel routines

     PAW routines
     PAW_pot      :    449.52s CPU     41.06s WALL (      81 calls)
     PAW_symme    :      0.94s CPU      0.15s WALL (     161 calls)
 
     PWSCF        :  19m19.15s CPU   6m 5.16s WALL

 
   This run was terminated on:  18:24:13  22Oct2023            

=------------------------------------------------------------------------------=
   JOB DONE.
=------------------------------------------------------------------------------=
