
     Program PWSCF v.7.2 starts on 23Oct2023 at 21:43:55 

     This program is part of the open-source Quantum ESPRESSO suite
     for quantum simulation of materials; please cite
         "P. Giannozzi et al., J. Phys.:Condens. Matter 21 395502 (2009);
         "P. Giannozzi et al., J. Phys.:Condens. Matter 29 465901 (2017);
         "P. Giannozzi et al., J. Chem. Phys. 152 154105 (2020);
          URL http://www.quantum-espresso.org", 
     in publications or presentations arising from this work. More details at
     http://www.quantum-espresso.org/quote

     Parallel version (MPI & OpenMP), running on      12 processor cores
     Number of MPI processes:                 1
     Threads/MPI process:                    12

     MPI processes distributed on     1 nodes
     60521 MiB available memory on the printing compute node when the environment starts
 
     Reading input from aiida.in

     Current dimensions of program PWSCF are:
     Max number of different atomic species (ntypx) = 10
     Max number of k-points (npk) =  40000
     Max angular momentum in pseudopotentials (lmaxx) =  4
     Message from routine setup:
     using ibrav=0 with symmetry is DISCOURAGED, use correct ibrav instead
 
     Subspace diagonalization in iterative solution of the eigenvalue problem:
     a serial algorithm will be used

 
     G-vector sticks info
     --------------------
     sticks:   dense  smooth     PW     G-vecs:    dense   smooth      PW
     Sum        4315    2173    595               184785    65349    9665
 
     Using Slab Decomposition
 


     bravais-lattice index     =            0
     lattice parameter (alat)  =      11.4517  a.u.
     unit-cell volume          =    1040.9125 (a.u.)^3
     number of atoms/cell      =            9
     number of atomic types    =            3
     number of electrons       =        66.00
     number of Kohn-Sham states=           40
     kinetic-energy cutoff     =      60.0000  Ry
     charge density cutoff     =     480.0000  Ry
     scf convergence threshold =      1.8E-09
     mixing beta               =       0.2000
     number of iterations used =            8  plain     mixing
     Exchange-correlation= SLA  PW   PSX  PSC
                           (   1   4  10   8   0   0   0)

     GPU acceleration is ACTIVE.


     GPU used by master process:

        Device Number: 0
        Device name: Tesla P100-PCIE-16GB
        Compute capability : 60
        Ratio of single to double precision performance  : 2
        Memory Clock Rate (KHz): 715000
        Memory Bus Width (bits): 4096
        Peak Memory Bandwidth (GB/s): 732.16

     celldm(1)=  11.451740  celldm(2)=   0.000000  celldm(3)=   0.000000
     celldm(4)=   0.000000  celldm(5)=   0.000000  celldm(6)=   0.000000

     crystal axes: (cart. coord. in units of alat)
               a(1) = (   1.000000   0.000000   0.000000 )  
               a(2) = (  -0.500000   0.866025   0.000000 )  
               a(3) = (   0.000000   0.000000   0.800330 )  

     reciprocal axes: (cart. coord. in units 2 pi/alat)
               b(1) = (  1.000000  0.577350 -0.000000 )  
               b(2) = (  0.000000  1.154701  0.000000 )  
               b(3) = (  0.000000 -0.000000  1.249485 )  


     PseudoPot. # 1 for F  read from file:
     ./pseudo/f_pbesol_v1.4.uspp.F.UPF
     MD5 check sum: d2815ecb49b17b99c5724ffd2f9bbd8d
     Pseudo is Ultrasoft, Zval =  7.0
     Generated by new atomic code, or converted to UPF format
     Using radial grid of  799 points,  4 beta functions with: 
                l(1) =   0
                l(2) =   0
                l(3) =   1
                l(4) =   1
     Q(r) pseudized with  8 coefficients,  rinner =    0.950   0.950   0.950


     PseudoPot. # 2 for N  read from file:
     ./pseudo/N.pbesol-theos.UPF
     MD5 check sum: 1b64827339d390a5a22afef3ff345c9d
     Pseudo is Ultrasoft + core correction, Zval =  5.0
     Generated using "atomic" code by A. Dal Corso  v.5.1
     Using radial grid of 1085 points,  4 beta functions with: 
                l(1) =   0
                l(2) =   0
                l(3) =   1
                l(4) =   1
     Q(r) pseudized with 0 coefficients 


     PseudoPot. # 3 for Sn read from file:
     ./pseudo/sn_pbesol_v1.4.uspp.F.UPF
     MD5 check sum: 463fec1d5456f1e96ec1bfcad4b7b038
     Pseudo is Ultrasoft + core correction, Zval = 14.0
     Generated by new atomic code, or converted to UPF format
     Using radial grid of  891 points,  6 beta functions with: 
                l(1) =   0
                l(2) =   0
                l(3) =   1
                l(4) =   1
                l(5) =   2
                l(6) =   2
     Q(r) pseudized with  8 coefficients,  rinner =    1.350   1.350   1.350
                                                       1.350   1.350

     atomic species   valence    mass     pseudopotential
        F              7.00    18.99840     F ( 1.00)
        N              5.00    14.00670     N ( 1.00)
        Sn            14.00   118.71000     Sn( 1.00)

     Starting magnetic structure 
     atomic species   magnetization
        F            0.100
        N            0.100
        Sn           0.100

     12 Sym. Ops., with inversion, found


                                    s                        frac. trans.

      isym =  1     identity                                     

 cryst.   s( 1) = (     1          0          0      )
                  (     0          1          0      )
                  (     0          0          1      )

 cart.    s( 1) = (  1.0000000  0.0000000  0.0000000 )
                  (  0.0000000  1.0000000  0.0000000 )
                  (  0.0000000  0.0000000  1.0000000 )


      isym =  2     180 deg rotation - cart. axis [1,0,0]        

 cryst.   s( 2) = (     1          0          0      )
                  (    -1         -1          0      )
                  (     0          0         -1      )

 cart.    s( 2) = (  1.0000000  0.0000000  0.0000000 )
                  (  0.0000000 -1.0000000  0.0000000 )
                  (  0.0000000  0.0000000 -1.0000000 )


      isym =  3     120 deg rotation - cryst. axis [0,0,1]       

 cryst.   s( 3) = (     0          1          0      )
                  (    -1         -1          0      )
                  (     0          0          1      )

 cart.    s( 3) = ( -0.5000000 -0.8660254  0.0000000 )
                  (  0.8660254 -0.5000000  0.0000000 )
                  (  0.0000000  0.0000000  1.0000000 )


      isym =  4     120 deg rotation - cryst. axis [0,0,-1]      

 cryst.   s( 4) = (    -1         -1          0      )
                  (     1          0          0      )
                  (     0          0          1      )

 cart.    s( 4) = ( -0.5000000  0.8660254  0.0000000 )
                  ( -0.8660254 -0.5000000  0.0000000 )
                  (  0.0000000  0.0000000  1.0000000 )


      isym =  5     180 deg rotation - cryst. axis [0,1,0]       

 cryst.   s( 5) = (    -1         -1          0      )
                  (     0          1          0      )
                  (     0          0         -1      )

 cart.    s( 5) = ( -0.5000000 -0.8660254  0.0000000 )
                  ( -0.8660254  0.5000000  0.0000000 )
                  (  0.0000000  0.0000000 -1.0000000 )


      isym =  6     180 deg rotation - cryst. axis [1,1,0]       

 cryst.   s( 6) = (     0          1          0      )
                  (     1          0          0      )
                  (     0          0         -1      )

 cart.    s( 6) = ( -0.5000000  0.8660254  0.0000000 )
                  (  0.8660254  0.5000000  0.0000000 )
                  (  0.0000000  0.0000000 -1.0000000 )


      isym =  7     inversion                                    

 cryst.   s( 7) = (    -1          0          0      )
                  (     0         -1          0      )
                  (     0          0         -1      )

 cart.    s( 7) = ( -1.0000000  0.0000000  0.0000000 )
                  (  0.0000000 -1.0000000  0.0000000 )
                  (  0.0000000  0.0000000 -1.0000000 )


      isym =  8     inv. 180 deg rotation - cart. axis [1,0,0]   

 cryst.   s( 8) = (    -1          0          0      )
                  (     1          1          0      )
                  (     0          0          1      )

 cart.    s( 8) = ( -1.0000000  0.0000000  0.0000000 )
                  (  0.0000000  1.0000000  0.0000000 )
                  (  0.0000000  0.0000000  1.0000000 )


      isym =  9     inv. 120 deg rotation - cryst. axis [0,0,1]  

 cryst.   s( 9) = (     0         -1          0      )
                  (     1          1          0      )
                  (     0          0         -1      )

 cart.    s( 9) = (  0.5000000  0.8660254  0.0000000 )
                  ( -0.8660254  0.5000000  0.0000000 )
                  (  0.0000000  0.0000000 -1.0000000 )


      isym = 10     inv. 120 deg rotation - cryst. axis [0,0,-1] 

 cryst.   s(10) = (     1          1          0      )
                  (    -1          0          0      )
                  (     0          0         -1      )

 cart.    s(10) = (  0.5000000 -0.8660254  0.0000000 )
                  (  0.8660254  0.5000000  0.0000000 )
                  (  0.0000000  0.0000000 -1.0000000 )


      isym = 11     inv. 180 deg rotation - cryst. axis [0,1,0]  

 cryst.   s(11) = (     1          1          0      )
                  (     0         -1          0      )
                  (     0          0          1      )

 cart.    s(11) = (  0.5000000  0.8660254  0.0000000 )
                  (  0.8660254 -0.5000000  0.0000000 )
                  (  0.0000000  0.0000000  1.0000000 )


      isym = 12     inv. 180 deg rotation - cryst. axis [1,1,0]  

 cryst.   s(12) = (     0         -1          0      )
                  (    -1          0          0      )
                  (     0          0          1      )

 cart.    s(12) = (  0.5000000 -0.8660254  0.0000000 )
                  ( -0.8660254 -0.5000000  0.0000000 )
                  (  0.0000000  0.0000000  1.0000000 )


   Cartesian axes

     site n.     atom                  positions (alat units)
         1           Sn  tau(   1) = (   0.0000000   0.0000000   0.0000000  )
         2           N   tau(   2) = (  -0.0000000   0.5773503   0.2641089  )
         3           N   tau(   3) = (   0.5000000   0.2886751   0.5362211  )
         4           F   tau(   4) = (   0.2085000   0.1203775   0.1608663  )
         5           F   tau(   5) = (   0.0000000   0.2407551   0.6394637  )
         6           F   tau(   6) = (  -0.2915000   0.7456479   0.6394637  )
         7           F   tau(   7) = (   0.7915000   0.1203775   0.1608663  )
         8           F   tau(   8) = (   0.5000000   0.6252703   0.1608663  )
         9           F   tau(   9) = (   0.2915000   0.7456479   0.6394637  )

   Crystallographic axes

     site n.     atom                  positions (cryst. coord.)
         1           Sn  tau(   1) = (  0.0000000  0.0000000  0.0000000  )
         2           N   tau(   2) = (  0.3333333  0.6666667  0.3300000  )
         3           N   tau(   3) = (  0.6666667  0.3333333  0.6700000  )
         4           F   tau(   4) = (  0.2780000  0.1390000  0.2010000  )
         5           F   tau(   5) = (  0.1390000  0.2780000  0.7990000  )
         6           F   tau(   6) = (  0.1390000  0.8610000  0.7990000  )
         7           F   tau(   7) = (  0.8610000  0.1390000  0.2010000  )
         8           F   tau(   8) = (  0.8610000  0.7220000  0.2010000  )
         9           F   tau(   9) = (  0.7220000  0.8610000  0.7990000  )

     number of k points=    70  Marzari-Vanderbilt smearing, width (Ry)=  0.0100
                       cart. coord. in units 2pi/alat
        k(    1) = (   0.0000000   0.0000000   0.0000000), wk =   0.0017361
        k(    2) = (   0.0000000   0.0000000   0.1388316), wk =   0.0034722
        k(    3) = (   0.0000000   0.0000000   0.2776632), wk =   0.0034722
        k(    4) = (   0.0000000   0.0000000   0.4164948), wk =   0.0034722
        k(    5) = (   0.0000000   0.0000000   0.5553265), wk =   0.0034722
        k(    6) = (   0.0000000   0.1443376   0.0000000), wk =   0.0104167
        k(    7) = (   0.0000000   0.1443376   0.1388316), wk =   0.0104167
        k(    8) = (   0.0000000   0.1443376   0.2776632), wk =   0.0104167
        k(    9) = (   0.0000000   0.1443376   0.4164948), wk =   0.0104167
        k(   10) = (   0.0000000   0.1443376   0.5553265), wk =   0.0104167
        k(   11) = (   0.0000000   0.2886751   0.0000000), wk =   0.0104167
        k(   12) = (   0.0000000   0.2886751   0.1388316), wk =   0.0104167
        k(   13) = (   0.0000000   0.2886751   0.2776632), wk =   0.0104167
        k(   14) = (   0.0000000   0.2886751   0.4164948), wk =   0.0104167
        k(   15) = (   0.0000000   0.2886751   0.5553265), wk =   0.0104167
        k(   16) = (   0.0000000   0.4330127   0.0000000), wk =   0.0104167
        k(   17) = (   0.0000000   0.4330127   0.1388316), wk =   0.0104167
        k(   18) = (   0.0000000   0.4330127   0.2776632), wk =   0.0104167
        k(   19) = (   0.0000000   0.4330127   0.4164948), wk =   0.0104167
        k(   20) = (   0.0000000   0.4330127   0.5553265), wk =   0.0104167
        k(   21) = (   0.0000000  -0.5773503   0.0000000), wk =   0.0052083
        k(   22) = (   0.0000000  -0.5773503   0.1388316), wk =   0.0104167
        k(   23) = (   0.0000000  -0.5773503   0.2776632), wk =   0.0104167
        k(   24) = (   0.0000000  -0.5773503   0.4164948), wk =   0.0104167
        k(   25) = (   0.0000000  -0.5773503   0.5553265), wk =   0.0104167
        k(   26) = (   0.1250000   0.2165064   0.0000000), wk =   0.0104167
        k(   27) = (   0.1250000   0.2165064   0.1388316), wk =   0.0208333
        k(   28) = (   0.1250000   0.2165064   0.2776632), wk =   0.0208333
        k(   29) = (   0.1250000   0.2165064   0.4164948), wk =   0.0208333
        k(   30) = (   0.1250000   0.2165064   0.5553265), wk =   0.0208333
        k(   31) = (   0.1250000   0.3608439   0.0000000), wk =   0.0208333
        k(   32) = (   0.1250000   0.3608439   0.1388316), wk =   0.0208333
        k(   33) = (   0.1250000   0.3608439   0.2776632), wk =   0.0208333
        k(   34) = (   0.1250000   0.3608439   0.4164948), wk =   0.0208333
        k(   35) = (   0.1250000   0.3608439   0.5553265), wk =   0.0208333
        k(   36) = (   0.1250000   0.5051815   0.0000000), wk =   0.0208333
        k(   37) = (   0.1250000   0.5051815   0.1388316), wk =   0.0208333
        k(   38) = (   0.1250000   0.5051815   0.2776632), wk =   0.0208333
        k(   39) = (   0.1250000   0.5051815   0.4164948), wk =   0.0208333
        k(   40) = (   0.1250000   0.5051815   0.5553265), wk =   0.0208333
        k(   41) = (   0.2500000   0.4330127   0.0000000), wk =   0.0104167
        k(   42) = (   0.2500000   0.4330127   0.1388316), wk =   0.0208333
        k(   43) = (   0.2500000   0.4330127   0.2776632), wk =   0.0208333
        k(   44) = (   0.2500000   0.4330127   0.4164948), wk =   0.0208333
        k(   45) = (   0.2500000   0.4330127   0.5553265), wk =   0.0208333
        k(   46) = (   0.2500000   0.5773503   0.0000000), wk =   0.0104167
        k(   47) = (   0.2500000   0.5773503   0.1388316), wk =   0.0208333
        k(   48) = (   0.2500000   0.5773503   0.2776632), wk =   0.0208333
        k(   49) = (   0.2500000   0.5773503   0.4164948), wk =   0.0208333
        k(   50) = (   0.2500000   0.5773503   0.5553265), wk =   0.0208333
        k(   51) = (   0.0000000   0.1443376  -0.1388316), wk =   0.0104167
        k(   52) = (   0.0000000   0.1443376  -0.2776632), wk =   0.0104167
        k(   53) = (   0.0000000   0.1443376  -0.4164948), wk =   0.0104167
        k(   54) = (   0.0000000   0.1443376  -0.5553265), wk =   0.0104167
        k(   55) = (   0.0000000   0.2886751  -0.1388316), wk =   0.0104167
        k(   56) = (   0.0000000   0.2886751  -0.2776632), wk =   0.0104167
        k(   57) = (   0.0000000   0.2886751  -0.4164948), wk =   0.0104167
        k(   58) = (   0.0000000   0.2886751  -0.5553265), wk =   0.0104167
        k(   59) = (   0.0000000   0.4330127  -0.1388316), wk =   0.0104167
        k(   60) = (   0.0000000   0.4330127  -0.2776632), wk =   0.0104167
        k(   61) = (   0.0000000   0.4330127  -0.4164948), wk =   0.0104167
        k(   62) = (   0.0000000   0.4330127  -0.5553265), wk =   0.0104167
        k(   63) = (  -0.1250000   0.3608439  -0.1388316), wk =   0.0208333
        k(   64) = (  -0.1250000   0.3608439  -0.2776632), wk =   0.0208333
        k(   65) = (  -0.1250000   0.3608439  -0.4164948), wk =   0.0208333
        k(   66) = (  -0.1250000   0.3608439  -0.5553265), wk =   0.0208333
        k(   67) = (  -0.1250000   0.5051815  -0.1388316), wk =   0.0208333
        k(   68) = (  -0.1250000   0.5051815  -0.2776632), wk =   0.0208333
        k(   69) = (  -0.1250000   0.5051815  -0.4164948), wk =   0.0208333
        k(   70) = (  -0.1250000   0.5051815  -0.5553265), wk =   0.0208333

                       cryst. coord.
        k(    1) = (   0.0000000   0.0000000   0.0000000), wk =   0.0017361
        k(    2) = (   0.0000000   0.0000000   0.1111111), wk =   0.0034722
        k(    3) = (   0.0000000   0.0000000   0.2222222), wk =   0.0034722
        k(    4) = (   0.0000000   0.0000000   0.3333333), wk =   0.0034722
        k(    5) = (   0.0000000   0.0000000   0.4444444), wk =   0.0034722
        k(    6) = (   0.0000000   0.1250000   0.0000000), wk =   0.0104167
        k(    7) = (   0.0000000   0.1250000   0.1111111), wk =   0.0104167
        k(    8) = (   0.0000000   0.1250000   0.2222222), wk =   0.0104167
        k(    9) = (   0.0000000   0.1250000   0.3333333), wk =   0.0104167
        k(   10) = (   0.0000000   0.1250000   0.4444444), wk =   0.0104167
        k(   11) = (   0.0000000   0.2500000   0.0000000), wk =   0.0104167
        k(   12) = (   0.0000000   0.2500000   0.1111111), wk =   0.0104167
        k(   13) = (   0.0000000   0.2500000   0.2222222), wk =   0.0104167
        k(   14) = (   0.0000000   0.2500000   0.3333333), wk =   0.0104167
        k(   15) = (   0.0000000   0.2500000   0.4444444), wk =   0.0104167
        k(   16) = (   0.0000000   0.3750000   0.0000000), wk =   0.0104167
        k(   17) = (   0.0000000   0.3750000   0.1111111), wk =   0.0104167
        k(   18) = (   0.0000000   0.3750000   0.2222222), wk =   0.0104167
        k(   19) = (   0.0000000   0.3750000   0.3333333), wk =   0.0104167
        k(   20) = (   0.0000000   0.3750000   0.4444444), wk =   0.0104167
        k(   21) = (   0.0000000  -0.5000000   0.0000000), wk =   0.0052083
        k(   22) = (   0.0000000  -0.5000000   0.1111111), wk =   0.0104167
        k(   23) = (   0.0000000  -0.5000000   0.2222222), wk =   0.0104167
        k(   24) = (   0.0000000  -0.5000000   0.3333333), wk =   0.0104167
        k(   25) = (   0.0000000  -0.5000000   0.4444444), wk =   0.0104167
        k(   26) = (   0.1250000   0.1250000   0.0000000), wk =   0.0104167
        k(   27) = (   0.1250000   0.1250000   0.1111111), wk =   0.0208333
        k(   28) = (   0.1250000   0.1250000   0.2222222), wk =   0.0208333
        k(   29) = (   0.1250000   0.1250000   0.3333333), wk =   0.0208333
        k(   30) = (   0.1250000   0.1250000   0.4444444), wk =   0.0208333
        k(   31) = (   0.1250000   0.2500000   0.0000000), wk =   0.0208333
        k(   32) = (   0.1250000   0.2500000   0.1111111), wk =   0.0208333
        k(   33) = (   0.1250000   0.2500000   0.2222222), wk =   0.0208333
        k(   34) = (   0.1250000   0.2500000   0.3333333), wk =   0.0208333
        k(   35) = (   0.1250000   0.2500000   0.4444444), wk =   0.0208333
        k(   36) = (   0.1250000   0.3750000   0.0000000), wk =   0.0208333
        k(   37) = (   0.1250000   0.3750000   0.1111111), wk =   0.0208333
        k(   38) = (   0.1250000   0.3750000   0.2222222), wk =   0.0208333
        k(   39) = (   0.1250000   0.3750000   0.3333333), wk =   0.0208333
        k(   40) = (   0.1250000   0.3750000   0.4444444), wk =   0.0208333
        k(   41) = (   0.2500000   0.2500000   0.0000000), wk =   0.0104167
        k(   42) = (   0.2500000   0.2500000   0.1111111), wk =   0.0208333
        k(   43) = (   0.2500000   0.2500000   0.2222222), wk =   0.0208333
        k(   44) = (   0.2500000   0.2500000   0.3333333), wk =   0.0208333
        k(   45) = (   0.2500000   0.2500000   0.4444444), wk =   0.0208333
        k(   46) = (   0.2500000   0.3750000   0.0000000), wk =   0.0104167
        k(   47) = (   0.2500000   0.3750000   0.1111111), wk =   0.0208333
        k(   48) = (   0.2500000   0.3750000   0.2222222), wk =   0.0208333
        k(   49) = (   0.2500000   0.3750000   0.3333333), wk =   0.0208333
        k(   50) = (   0.2500000   0.3750000   0.4444444), wk =   0.0208333
        k(   51) = (   0.0000000   0.1250000  -0.1111111), wk =   0.0104167
        k(   52) = (   0.0000000   0.1250000  -0.2222222), wk =   0.0104167
        k(   53) = (   0.0000000   0.1250000  -0.3333333), wk =   0.0104167
        k(   54) = (   0.0000000   0.1250000  -0.4444444), wk =   0.0104167
        k(   55) = (   0.0000000   0.2500000  -0.1111111), wk =   0.0104167
        k(   56) = (   0.0000000   0.2500000  -0.2222222), wk =   0.0104167
        k(   57) = (   0.0000000   0.2500000  -0.3333333), wk =   0.0104167
        k(   58) = (   0.0000000   0.2500000  -0.4444444), wk =   0.0104167
        k(   59) = (   0.0000000   0.3750000  -0.1111111), wk =   0.0104167
        k(   60) = (   0.0000000   0.3750000  -0.2222222), wk =   0.0104167
        k(   61) = (   0.0000000   0.3750000  -0.3333333), wk =   0.0104167
        k(   62) = (   0.0000000   0.3750000  -0.4444444), wk =   0.0104167
        k(   63) = (  -0.1250000   0.3750000  -0.1111111), wk =   0.0208333
        k(   64) = (  -0.1250000   0.3750000  -0.2222222), wk =   0.0208333
        k(   65) = (  -0.1250000   0.3750000  -0.3333333), wk =   0.0208333
        k(   66) = (  -0.1250000   0.3750000  -0.4444444), wk =   0.0208333
        k(   67) = (  -0.1250000   0.5000000  -0.1111111), wk =   0.0208333
        k(   68) = (  -0.1250000   0.5000000  -0.2222222), wk =   0.0208333
        k(   69) = (  -0.1250000   0.5000000  -0.3333333), wk =   0.0208333
        k(   70) = (  -0.1250000   0.5000000  -0.4444444), wk =   0.0208333

     Dense  grid:   184785 G-vectors     FFT dimensions: (  80,  80,  64)

     Smooth grid:    65349 G-vectors     FFT dimensions: (  60,  60,  45)

     Dynamical RAM for                 wfc:       4.99 MB

     Dynamical RAM for     wfc (w. buffer):     703.02 MB

     Dynamical RAM for           str. fact:       8.46 MB

     Dynamical RAM for           local pot:       0.00 MB

     Dynamical RAM for          nlocal pot:      10.22 MB

     Dynamical RAM for                qrad:       5.27 MB

     Dynamical RAM for          rho,v,vnew:      35.67 MB

     Dynamical RAM for               rhoin:      11.89 MB

     Dynamical RAM for            rho*nmix:      90.23 MB

     Dynamical RAM for           G-vectors:      11.07 MB

     Dynamical RAM for          h,s,v(r/c):       0.29 MB

     Dynamical RAM for          <psi|beta>:       0.05 MB

     Dynamical RAM for                 psi:       9.97 MB

     Dynamical RAM for                hpsi:       9.97 MB

     Dynamical RAM for                spsi:       9.97 MB

     Dynamical RAM for      wfcinit/wfcrot:      10.01 MB

     Dynamical RAM for           addusdens:     544.18 MB

     Dynamical RAM for          addusforce:     572.42 MB

     Dynamical RAM for         addusstress:     570.97 MB

     Estimated static dynamical RAM per process >     815.63 MB

     Estimated max dynamical RAM per process >       1.44 GB

     Atomic positions and unit cell read from directory:
     ./out/aiida.save/
 
     Generating pointlists ...
     new r_m :   0.1194 (alat units)  1.3678 (a.u.) for type    1
     new r_m :   0.2080 (alat units)  2.3816 (a.u.) for type    2
     new r_m :   0.1194 (alat units)  1.3678 (a.u.) for type    3

     The initial density is read from file :
     ./out/aiida.save/charge-density

     Starting wfcs from file

     total cpu time spent up to now is        3.1 secs

     per-process dynamical memory:   469.9 Mb

     Self-consistent Calculation
[tb_dev] Currently allocated     6.87E-05 Mbytes, locked:    0 /   2
[tb_pin] Currently allocated     0.00E+00 Mbytes, locked:    0 /   0

     iteration #  1     ecut=    60.00 Ry     beta= 0.20
     Davidson diagonalization with overlap

---- Real-time Memory Report at c_bands before calling an iterative solver
           603 MiB given to the printing process from OS
           468 MiB allocation reported by mallinfo(arena+hblkhd)
         59791 MiB available memory on the node where the printing process lives
     GPU memory used/free/total (MiB): 824 / 15456 / 16280
------------------
     ethr =  1.00E-05,  avg # of iterations =  2.0

     Threshold (ethr) on eigenvalues was too large:
     Diagonalizing with lowered threshold

     Davidson diagonalization with overlap

---- Real-time Memory Report at c_bands before calling an iterative solver
          1658 MiB given to the printing process from OS
          1488 MiB allocation reported by mallinfo(arena+hblkhd)
         57594 MiB available memory on the node where the printing process lives
     GPU memory used/free/total (MiB): 1974 / 14306 / 16280
------------------
     ethr =  1.49E-08,  avg # of iterations =  2.3

     total cpu time spent up to now is       14.3 secs

     total energy              =    -488.98724265 Ry
     estimated scf accuracy    <       0.00001018 Ry

     total magnetization       =     6.14 Bohr mag/cell
     absolute magnetization    =     6.26 Bohr mag/cell
[tb_dev] Currently allocated     5.68E+00 Mbytes, locked:    0 /  10
[tb_pin] Currently allocated     0.00E+00 Mbytes, locked:    0 /   0

     iteration #  2     ecut=    60.00 Ry     beta= 0.20
     Davidson diagonalization with overlap

---- Real-time Memory Report at c_bands before calling an iterative solver
          1704 MiB given to the printing process from OS
          1489 MiB allocation reported by mallinfo(arena+hblkhd)
         57567 MiB available memory on the node where the printing process lives
     GPU memory used/free/total (MiB): 1978 / 14302 / 16280
------------------
     ethr =  1.54E-08,  avg # of iterations =  1.0

     total cpu time spent up to now is       18.7 secs

     total energy              =    -488.98724466 Ry
     estimated scf accuracy    <       0.00010936 Ry

     total magnetization       =     6.09 Bohr mag/cell
     absolute magnetization    =     6.22 Bohr mag/cell
[tb_dev] Currently allocated     5.68E+00 Mbytes, locked:    0 /  10
[tb_pin] Currently allocated     0.00E+00 Mbytes, locked:    0 /   0

     iteration #  3     ecut=    60.00 Ry     beta= 0.20
     Davidson diagonalization with overlap

---- Real-time Memory Report at c_bands before calling an iterative solver
          1711 MiB given to the printing process from OS
          1495 MiB allocation reported by mallinfo(arena+hblkhd)
         57562 MiB available memory on the node where the printing process lives
     GPU memory used/free/total (MiB): 1978 / 14302 / 16280
------------------
     ethr =  1.54E-08,  avg # of iterations =  1.0

     total cpu time spent up to now is       23.2 secs

     total energy              =    -488.98724659 Ry
     estimated scf accuracy    <       0.00006221 Ry

     total magnetization       =     6.10 Bohr mag/cell
     absolute magnetization    =     6.23 Bohr mag/cell
[tb_dev] Currently allocated     5.68E+00 Mbytes, locked:    0 /  10
[tb_pin] Currently allocated     0.00E+00 Mbytes, locked:    0 /   0

     iteration #  4     ecut=    60.00 Ry     beta= 0.20
     Davidson diagonalization with overlap

---- Real-time Memory Report at c_bands before calling an iterative solver
          1717 MiB given to the printing process from OS
          1501 MiB allocation reported by mallinfo(arena+hblkhd)
         57555 MiB available memory on the node where the printing process lives
     GPU memory used/free/total (MiB): 1978 / 14302 / 16280
------------------
     ethr =  1.54E-08,  avg # of iterations =  1.0

     total cpu time spent up to now is       27.5 secs

     total energy              =    -488.98713496 Ry
     estimated scf accuracy    <       0.00006615 Ry

     total magnetization       =     6.10 Bohr mag/cell
     absolute magnetization    =     6.22 Bohr mag/cell
[tb_dev] Currently allocated     5.68E+00 Mbytes, locked:    0 /  10
[tb_pin] Currently allocated     0.00E+00 Mbytes, locked:    0 /   0

     iteration #  5     ecut=    60.00 Ry     beta= 0.20
     Davidson diagonalization with overlap

---- Real-time Memory Report at c_bands before calling an iterative solver
          1717 MiB given to the printing process from OS
          1501 MiB allocation reported by mallinfo(arena+hblkhd)
         57556 MiB available memory on the node where the printing process lives
     GPU memory used/free/total (MiB): 1978 / 14302 / 16280
------------------
     ethr =  1.54E-08,  avg # of iterations =  3.0

     total cpu time spent up to now is       34.0 secs

     total energy              =    -488.98685628 Ry
     estimated scf accuracy    <       0.00004048 Ry

     total magnetization       =     6.18 Bohr mag/cell
     absolute magnetization    =     6.30 Bohr mag/cell
[tb_dev] Currently allocated     5.68E+00 Mbytes, locked:    0 /  10
[tb_pin] Currently allocated     0.00E+00 Mbytes, locked:    0 /   0

     iteration #  6     ecut=    60.00 Ry     beta= 0.20
     Davidson diagonalization with overlap

---- Real-time Memory Report at c_bands before calling an iterative solver
          1725 MiB given to the printing process from OS
          1509 MiB allocation reported by mallinfo(arena+hblkhd)
         57549 MiB available memory on the node where the printing process lives
     GPU memory used/free/total (MiB): 1978 / 14302 / 16280
------------------
     ethr =  1.54E-08,  avg # of iterations =  4.0

     total cpu time spent up to now is       41.3 secs

     total energy              =    -488.98665159 Ry
     estimated scf accuracy    <       0.00003892 Ry

     total magnetization       =     6.31 Bohr mag/cell
     absolute magnetization    =     6.43 Bohr mag/cell
[tb_dev] Currently allocated     5.68E+00 Mbytes, locked:    0 /  10
[tb_pin] Currently allocated     0.00E+00 Mbytes, locked:    0 /   0

     iteration #  7     ecut=    60.00 Ry     beta= 0.20
     Davidson diagonalization with overlap

---- Real-time Memory Report at c_bands before calling an iterative solver
          1727 MiB given to the printing process from OS
          1511 MiB allocation reported by mallinfo(arena+hblkhd)
         57550 MiB available memory on the node where the printing process lives
     GPU memory used/free/total (MiB): 1978 / 14302 / 16280
------------------
     ethr =  1.54E-08,  avg # of iterations =  4.7

     total cpu time spent up to now is       49.6 secs

     total energy              =    -488.98707934 Ry
     estimated scf accuracy    <       0.00001450 Ry

     total magnetization       =     6.11 Bohr mag/cell
     absolute magnetization    =     6.23 Bohr mag/cell
[tb_dev] Currently allocated     5.68E+00 Mbytes, locked:    0 /  10
[tb_pin] Currently allocated     0.00E+00 Mbytes, locked:    0 /   0

     iteration #  8     ecut=    60.00 Ry     beta= 0.20
     Davidson diagonalization with overlap

---- Real-time Memory Report at c_bands before calling an iterative solver
          1735 MiB given to the printing process from OS
          1511 MiB allocation reported by mallinfo(arena+hblkhd)
         57551 MiB available memory on the node where the printing process lives
     GPU memory used/free/total (MiB): 1978 / 14302 / 16280
------------------
     ethr =  1.54E-08,  avg # of iterations =  3.5

     total cpu time spent up to now is       56.4 secs

     total energy              =    -488.98715409 Ry
     estimated scf accuracy    <       0.00000863 Ry

     total magnetization       =     6.21 Bohr mag/cell
     absolute magnetization    =     6.33 Bohr mag/cell
[tb_dev] Currently allocated     5.68E+00 Mbytes, locked:    0 /  10
[tb_pin] Currently allocated     0.00E+00 Mbytes, locked:    0 /   0

     iteration #  9     ecut=    60.00 Ry     beta= 0.20
     Davidson diagonalization with overlap

---- Real-time Memory Report at c_bands before calling an iterative solver
          1735 MiB given to the printing process from OS
          1519 MiB allocation reported by mallinfo(arena+hblkhd)
         57544 MiB available memory on the node where the printing process lives
     GPU memory used/free/total (MiB): 1978 / 14302 / 16280
------------------
     ethr =  1.31E-08,  avg # of iterations =  2.1

     total cpu time spent up to now is       62.3 secs

     total energy              =    -488.98716939 Ry
     estimated scf accuracy    <       0.00000922 Ry

     total magnetization       =     6.24 Bohr mag/cell
     absolute magnetization    =     6.36 Bohr mag/cell
[tb_dev] Currently allocated     5.68E+00 Mbytes, locked:    0 /  10
[tb_pin] Currently allocated     0.00E+00 Mbytes, locked:    0 /   0

     iteration # 10     ecut=    60.00 Ry     beta= 0.20
     Davidson diagonalization with overlap

---- Real-time Memory Report at c_bands before calling an iterative solver
          1739 MiB given to the printing process from OS
          1523 MiB allocation reported by mallinfo(arena+hblkhd)
         57540 MiB available memory on the node where the printing process lives
     GPU memory used/free/total (MiB): 1978 / 14302 / 16280
------------------
     ethr =  1.31E-08,  avg # of iterations =  1.0

     total cpu time spent up to now is       66.5 secs

     total energy              =    -488.98708334 Ry
     estimated scf accuracy    <       0.00000938 Ry

     total magnetization       =     6.25 Bohr mag/cell
     absolute magnetization    =     6.37 Bohr mag/cell
[tb_dev] Currently allocated     5.68E+00 Mbytes, locked:    0 /  10
[tb_pin] Currently allocated     0.00E+00 Mbytes, locked:    0 /   0

     iteration # 11     ecut=    60.00 Ry     beta= 0.20
     Davidson diagonalization with overlap

---- Real-time Memory Report at c_bands before calling an iterative solver
          1739 MiB given to the printing process from OS
          1523 MiB allocation reported by mallinfo(arena+hblkhd)
         57540 MiB available memory on the node where the printing process lives
     GPU memory used/free/total (MiB): 1978 / 14302 / 16280
------------------
     ethr =  1.31E-08,  avg # of iterations =  3.0

     total cpu time spent up to now is       73.0 secs

     total energy              =    -488.98711015 Ry
     estimated scf accuracy    <       0.00001470 Ry

     total magnetization       =     6.30 Bohr mag/cell
     absolute magnetization    =     6.42 Bohr mag/cell
[tb_dev] Currently allocated     5.68E+00 Mbytes, locked:    0 /  10
[tb_pin] Currently allocated     0.00E+00 Mbytes, locked:    0 /   0

     iteration # 12     ecut=    60.00 Ry     beta= 0.20
     Davidson diagonalization with overlap

---- Real-time Memory Report at c_bands before calling an iterative solver
          1741 MiB given to the printing process from OS
          1523 MiB allocation reported by mallinfo(arena+hblkhd)
         57540 MiB available memory on the node where the printing process lives
     GPU memory used/free/total (MiB): 1978 / 14302 / 16280
------------------
     ethr =  1.31E-08,  avg # of iterations =  3.4

     total cpu time spent up to now is       79.7 secs

     total energy              =    -488.98715028 Ry
     estimated scf accuracy    <       0.00000809 Ry

     total magnetization       =     6.23 Bohr mag/cell
     absolute magnetization    =     6.35 Bohr mag/cell
[tb_dev] Currently allocated     5.68E+00 Mbytes, locked:    0 /  10
[tb_pin] Currently allocated     0.00E+00 Mbytes, locked:    0 /   0

     iteration # 13     ecut=    60.00 Ry     beta= 0.20
     Davidson diagonalization with overlap

---- Real-time Memory Report at c_bands before calling an iterative solver
          1745 MiB given to the printing process from OS
          1523 MiB allocation reported by mallinfo(arena+hblkhd)
         57541 MiB available memory on the node where the printing process lives
     GPU memory used/free/total (MiB): 1978 / 14302 / 16280
------------------
     ethr =  1.23E-08,  avg # of iterations =  3.5

     total cpu time spent up to now is       86.6 secs

     total energy              =    -488.98707070 Ry
     estimated scf accuracy    <       0.00001001 Ry

     total magnetization       =     6.15 Bohr mag/cell
     absolute magnetization    =     6.27 Bohr mag/cell
[tb_dev] Currently allocated     5.68E+00 Mbytes, locked:    0 /  10
[tb_pin] Currently allocated     0.00E+00 Mbytes, locked:    0 /   0

     iteration # 14     ecut=    60.00 Ry     beta= 0.20
     Davidson diagonalization with overlap

---- Real-time Memory Report at c_bands before calling an iterative solver
          1745 MiB given to the printing process from OS
          1523 MiB allocation reported by mallinfo(arena+hblkhd)
         57541 MiB available memory on the node where the printing process lives
     GPU memory used/free/total (MiB): 1978 / 14302 / 16280
------------------
     ethr =  1.23E-08,  avg # of iterations =  3.5

     total cpu time spent up to now is       93.5 secs

     total energy              =    -488.98705330 Ry
     estimated scf accuracy    <       0.00000888 Ry

     total magnetization       =     6.24 Bohr mag/cell
     absolute magnetization    =     6.36 Bohr mag/cell
[tb_dev] Currently allocated     5.68E+00 Mbytes, locked:    0 /  10
[tb_pin] Currently allocated     0.00E+00 Mbytes, locked:    0 /   0

     iteration # 15     ecut=    60.00 Ry     beta= 0.20
     Davidson diagonalization with overlap

---- Real-time Memory Report at c_bands before calling an iterative solver
          1745 MiB given to the printing process from OS
          1523 MiB allocation reported by mallinfo(arena+hblkhd)
         57541 MiB available memory on the node where the printing process lives
     GPU memory used/free/total (MiB): 1978 / 14302 / 16280
------------------
     ethr =  1.23E-08,  avg # of iterations =  3.5

     total cpu time spent up to now is      100.3 secs

     total energy              =    -488.98573128 Ry
     estimated scf accuracy    <       0.00001576 Ry

     total magnetization       =     6.30 Bohr mag/cell
     absolute magnetization    =     6.43 Bohr mag/cell
[tb_dev] Currently allocated     5.68E+00 Mbytes, locked:    0 /  10
[tb_pin] Currently allocated     0.00E+00 Mbytes, locked:    0 /   0

     iteration # 16     ecut=    60.00 Ry     beta= 0.20
     Davidson diagonalization with overlap

---- Real-time Memory Report at c_bands before calling an iterative solver
          1745 MiB given to the printing process from OS
          1523 MiB allocation reported by mallinfo(arena+hblkhd)
         57541 MiB available memory on the node where the printing process lives
     GPU memory used/free/total (MiB): 1978 / 14302 / 16280
------------------
     ethr =  1.23E-08,  avg # of iterations =  5.8

     total cpu time spent up to now is      109.9 secs

     total energy              =    -488.98734979 Ry
     estimated scf accuracy    <       0.00014407 Ry

     total magnetization       =     5.88 Bohr mag/cell
     absolute magnetization    =     6.03 Bohr mag/cell
[tb_dev] Currently allocated     5.68E+00 Mbytes, locked:    0 /  10
[tb_pin] Currently allocated     0.00E+00 Mbytes, locked:    0 /   0

     iteration # 17     ecut=    60.00 Ry     beta= 0.20
     Davidson diagonalization with overlap

---- Real-time Memory Report at c_bands before calling an iterative solver
          1745 MiB given to the printing process from OS
          1523 MiB allocation reported by mallinfo(arena+hblkhd)
         57541 MiB available memory on the node where the printing process lives
     GPU memory used/free/total (MiB): 1978 / 14302 / 16280
------------------
     ethr =  1.23E-08,  avg # of iterations =  2.3

     total cpu time spent up to now is      115.7 secs

     total energy              =    -488.98548869 Ry
     estimated scf accuracy    <       0.00007161 Ry

     total magnetization       =     5.96 Bohr mag/cell
     absolute magnetization    =     6.09 Bohr mag/cell
[tb_dev] Currently allocated     5.68E+00 Mbytes, locked:    0 /  10
[tb_pin] Currently allocated     0.00E+00 Mbytes, locked:    0 /   0

     iteration # 18     ecut=    60.00 Ry     beta= 0.20
     Davidson diagonalization with overlap

---- Real-time Memory Report at c_bands before calling an iterative solver
          1745 MiB given to the printing process from OS
          1523 MiB allocation reported by mallinfo(arena+hblkhd)
         57540 MiB available memory on the node where the printing process lives
     GPU memory used/free/total (MiB): 1978 / 14302 / 16280
------------------
     ethr =  1.23E-08,  avg # of iterations =  5.5

     total cpu time spent up to now is      125.0 secs

     total energy              =    -488.98711467 Ry
     estimated scf accuracy    <       0.00001626 Ry

     total magnetization       =     6.31 Bohr mag/cell
     absolute magnetization    =     6.43 Bohr mag/cell
[tb_dev] Currently allocated     5.68E+00 Mbytes, locked:    0 /  10
[tb_pin] Currently allocated     0.00E+00 Mbytes, locked:    0 /   0

     iteration # 19     ecut=    60.00 Ry     beta= 0.20
     Davidson diagonalization with overlap

---- Real-time Memory Report at c_bands before calling an iterative solver
          1745 MiB given to the printing process from OS
          1523 MiB allocation reported by mallinfo(arena+hblkhd)
         57542 MiB available memory on the node where the printing process lives
     GPU memory used/free/total (MiB): 1978 / 14302 / 16280
------------------
     ethr =  1.23E-08,  avg # of iterations =  1.0

     total cpu time spent up to now is      129.2 secs

     total energy              =    -488.98712061 Ry
     estimated scf accuracy    <       0.00001618 Ry

     total magnetization       =     6.31 Bohr mag/cell
     absolute magnetization    =     6.43 Bohr mag/cell
[tb_dev] Currently allocated     5.68E+00 Mbytes, locked:    0 /  10
[tb_pin] Currently allocated     0.00E+00 Mbytes, locked:    0 /   0

     iteration # 20     ecut=    60.00 Ry     beta= 0.20
     Davidson diagonalization with overlap

---- Real-time Memory Report at c_bands before calling an iterative solver
          1745 MiB given to the printing process from OS
          1523 MiB allocation reported by mallinfo(arena+hblkhd)
         57542 MiB available memory on the node where the printing process lives
     GPU memory used/free/total (MiB): 1978 / 14302 / 16280
------------------
     ethr =  1.23E-08,  avg # of iterations =  1.0

     total cpu time spent up to now is      133.5 secs

     total energy              =    -488.98712013 Ry
     estimated scf accuracy    <       0.00001476 Ry

     total magnetization       =     6.30 Bohr mag/cell
     absolute magnetization    =     6.43 Bohr mag/cell
[tb_dev] Currently allocated     5.68E+00 Mbytes, locked:    0 /  10
[tb_pin] Currently allocated     0.00E+00 Mbytes, locked:    0 /   0

     iteration # 21     ecut=    60.00 Ry     beta= 0.20
     Davidson diagonalization with overlap

---- Real-time Memory Report at c_bands before calling an iterative solver
          1745 MiB given to the printing process from OS
          1523 MiB allocation reported by mallinfo(arena+hblkhd)
         57542 MiB available memory on the node where the printing process lives
     GPU memory used/free/total (MiB): 1978 / 14302 / 16280
------------------
     ethr =  1.23E-08,  avg # of iterations =  1.0

     total cpu time spent up to now is      137.8 secs

     total energy              =    -488.98697461 Ry
     estimated scf accuracy    <       0.00001500 Ry

     total magnetization       =     6.30 Bohr mag/cell
     absolute magnetization    =     6.43 Bohr mag/cell
[tb_dev] Currently allocated     5.68E+00 Mbytes, locked:    0 /  10
[tb_pin] Currently allocated     0.00E+00 Mbytes, locked:    0 /   0

     iteration # 22     ecut=    60.00 Ry     beta= 0.20
     Davidson diagonalization with overlap

---- Real-time Memory Report at c_bands before calling an iterative solver
          1745 MiB given to the printing process from OS
          1523 MiB allocation reported by mallinfo(arena+hblkhd)
         57542 MiB available memory on the node where the printing process lives
     GPU memory used/free/total (MiB): 1978 / 14302 / 16280
------------------
     ethr =  1.23E-08,  avg # of iterations =  3.4

     total cpu time spent up to now is      144.7 secs

     total energy              =    -488.98673927 Ry
     estimated scf accuracy    <       0.00003371 Ry

     total magnetization       =     6.36 Bohr mag/cell
     absolute magnetization    =     6.49 Bohr mag/cell
[tb_dev] Currently allocated     5.68E+00 Mbytes, locked:    0 /  10
[tb_pin] Currently allocated     0.00E+00 Mbytes, locked:    0 /   0

     iteration # 23     ecut=    60.00 Ry     beta= 0.20
     Davidson diagonalization with overlap

---- Real-time Memory Report at c_bands before calling an iterative solver
          1745 MiB given to the printing process from OS
          1523 MiB allocation reported by mallinfo(arena+hblkhd)
         57542 MiB available memory on the node where the printing process lives
     GPU memory used/free/total (MiB): 1978 / 14302 / 16280
------------------
     ethr =  1.23E-08,  avg # of iterations =  4.8

     total cpu time spent up to now is      153.1 secs

     total energy              =    -488.98721823 Ry
     estimated scf accuracy    <       0.00000780 Ry

     total magnetization       =     6.18 Bohr mag/cell
     absolute magnetization    =     6.31 Bohr mag/cell
[tb_dev] Currently allocated     5.68E+00 Mbytes, locked:    0 /  10
[tb_pin] Currently allocated     0.00E+00 Mbytes, locked:    0 /   0

     iteration # 24     ecut=    60.00 Ry     beta= 0.20
     Davidson diagonalization with overlap

---- Real-time Memory Report at c_bands before calling an iterative solver
          1746 MiB given to the printing process from OS
          1523 MiB allocation reported by mallinfo(arena+hblkhd)
         57542 MiB available memory on the node where the printing process lives
     GPU memory used/free/total (MiB): 1978 / 14302 / 16280
------------------
     ethr =  1.18E-08,  avg # of iterations =  2.0

     total cpu time spent up to now is      158.5 secs

     total energy              =    -488.98723989 Ry
     estimated scf accuracy    <       0.00000905 Ry

     total magnetization       =     6.15 Bohr mag/cell
     absolute magnetization    =     6.27 Bohr mag/cell
[tb_dev] Currently allocated     5.68E+00 Mbytes, locked:    0 /  10
[tb_pin] Currently allocated     0.00E+00 Mbytes, locked:    0 /   0

     iteration # 25     ecut=    60.00 Ry     beta= 0.20
     Davidson diagonalization with overlap

---- Real-time Memory Report at c_bands before calling an iterative solver
          1746 MiB given to the printing process from OS
          1523 MiB allocation reported by mallinfo(arena+hblkhd)
         57542 MiB available memory on the node where the printing process lives
     GPU memory used/free/total (MiB): 1978 / 14302 / 16280
------------------
     ethr =  1.18E-08,  avg # of iterations =  2.0

     total cpu time spent up to now is      163.9 secs

     total energy              =    -488.98721994 Ry
     estimated scf accuracy    <       0.00001169 Ry

     total magnetization       =     6.12 Bohr mag/cell
     absolute magnetization    =     6.24 Bohr mag/cell
[tb_dev] Currently allocated     5.68E+00 Mbytes, locked:    0 /  10
[tb_pin] Currently allocated     0.00E+00 Mbytes, locked:    0 /   0

     iteration # 26     ecut=    60.00 Ry     beta= 0.20
     Davidson diagonalization with overlap

---- Real-time Memory Report at c_bands before calling an iterative solver
          1746 MiB given to the printing process from OS
          1523 MiB allocation reported by mallinfo(arena+hblkhd)
         57542 MiB available memory on the node where the printing process lives
     GPU memory used/free/total (MiB): 1978 / 14302 / 16280
------------------
     ethr =  1.18E-08,  avg # of iterations =  3.5

     total cpu time spent up to now is      170.8 secs

     total energy              =    -488.98721718 Ry
     estimated scf accuracy    <       0.00003807 Ry

     total magnetization       =     6.02 Bohr mag/cell
     absolute magnetization    =     6.14 Bohr mag/cell
[tb_dev] Currently allocated     5.68E+00 Mbytes, locked:    0 /  10
[tb_pin] Currently allocated     0.00E+00 Mbytes, locked:    0 /   0

     iteration # 27     ecut=    60.00 Ry     beta= 0.20
     Davidson diagonalization with overlap

---- Real-time Memory Report at c_bands before calling an iterative solver
          1746 MiB given to the printing process from OS
          1523 MiB allocation reported by mallinfo(arena+hblkhd)
         57543 MiB available memory on the node where the printing process lives
     GPU memory used/free/total (MiB): 1978 / 14302 / 16280
------------------
     ethr =  1.18E-08,  avg # of iterations =  3.0

     total cpu time spent up to now is      177.3 secs

     total energy              =    -488.98721344 Ry
     estimated scf accuracy    <       0.00001758 Ry

     total magnetization       =     6.09 Bohr mag/cell
     absolute magnetization    =     6.21 Bohr mag/cell
[tb_dev] Currently allocated     5.68E+00 Mbytes, locked:    0 /  10
[tb_pin] Currently allocated     0.00E+00 Mbytes, locked:    0 /   0

     iteration # 28     ecut=    60.00 Ry     beta= 0.20
     Davidson diagonalization with overlap

---- Real-time Memory Report at c_bands before calling an iterative solver
          1746 MiB given to the printing process from OS
          1523 MiB allocation reported by mallinfo(arena+hblkhd)
         57542 MiB available memory on the node where the printing process lives
     GPU memory used/free/total (MiB): 1978 / 14302 / 16280
------------------
     ethr =  1.18E-08,  avg # of iterations =  2.3

     total cpu time spent up to now is      183.1 secs

     total energy              =    -488.98710734 Ry
     estimated scf accuracy    <       0.00001120 Ry

     total magnetization       =     6.14 Bohr mag/cell
     absolute magnetization    =     6.26 Bohr mag/cell
[tb_dev] Currently allocated     5.68E+00 Mbytes, locked:    0 /  10
[tb_pin] Currently allocated     0.00E+00 Mbytes, locked:    0 /   0

     iteration # 29     ecut=    60.00 Ry     beta= 0.20
     Davidson diagonalization with overlap

---- Real-time Memory Report at c_bands before calling an iterative solver
          1746 MiB given to the printing process from OS
          1523 MiB allocation reported by mallinfo(arena+hblkhd)
         57541 MiB available memory on the node where the printing process lives
     GPU memory used/free/total (MiB): 1978 / 14302 / 16280
------------------
     ethr =  1.18E-08,  avg # of iterations =  3.5

     total cpu time spent up to now is      190.0 secs

     total energy              =    -488.98719698 Ry
     estimated scf accuracy    <       0.00000871 Ry

     total magnetization       =     6.22 Bohr mag/cell
     absolute magnetization    =     6.34 Bohr mag/cell
[tb_dev] Currently allocated     5.68E+00 Mbytes, locked:    0 /  10
[tb_pin] Currently allocated     0.00E+00 Mbytes, locked:    0 /   0

     iteration # 30     ecut=    60.00 Ry     beta= 0.20
     Davidson diagonalization with overlap

---- Real-time Memory Report at c_bands before calling an iterative solver
          1746 MiB given to the printing process from OS
          1523 MiB allocation reported by mallinfo(arena+hblkhd)
         57541 MiB available memory on the node where the printing process lives
     GPU memory used/free/total (MiB): 1978 / 14302 / 16280
------------------
     ethr =  1.18E-08,  avg # of iterations =  2.0

     total cpu time spent up to now is      194.9 secs

     total energy              =    -488.98715219 Ry
     estimated scf accuracy    <       0.00000862 Ry

     total magnetization       =     6.20 Bohr mag/cell
     absolute magnetization    =     6.32 Bohr mag/cell
[tb_dev] Currently allocated     5.68E+00 Mbytes, locked:    0 /  10
[tb_pin] Currently allocated     0.00E+00 Mbytes, locked:    0 /   0

     iteration # 31     ecut=    60.00 Ry     beta= 0.20
     Davidson diagonalization with overlap

---- Real-time Memory Report at c_bands before calling an iterative solver
          1746 MiB given to the printing process from OS
          1523 MiB allocation reported by mallinfo(arena+hblkhd)
         57542 MiB available memory on the node where the printing process lives
     GPU memory used/free/total (MiB): 1978 / 14302 / 16280
------------------
     ethr =  1.18E-08,  avg # of iterations =  3.5

     total cpu time spent up to now is      201.8 secs

     total energy              =    -488.98632488 Ry
     estimated scf accuracy    <       0.00001499 Ry

     total magnetization       =     6.11 Bohr mag/cell
     absolute magnetization    =     6.23 Bohr mag/cell
[tb_dev] Currently allocated     5.68E+00 Mbytes, locked:    0 /  10
[tb_pin] Currently allocated     0.00E+00 Mbytes, locked:    0 /   0

     iteration # 32     ecut=    60.00 Ry     beta= 0.20
     Davidson diagonalization with overlap

---- Real-time Memory Report at c_bands before calling an iterative solver
          1746 MiB given to the printing process from OS
          1523 MiB allocation reported by mallinfo(arena+hblkhd)
         57543 MiB available memory on the node where the printing process lives
     GPU memory used/free/total (MiB): 1978 / 14302 / 16280
------------------
     ethr =  1.18E-08,  avg # of iterations =  5.0

     total cpu time spent up to now is      210.6 secs

     total energy              =    -488.98707696 Ry
     estimated scf accuracy    <       0.00002330 Ry

     total magnetization       =     6.33 Bohr mag/cell
     absolute magnetization    =     6.46 Bohr mag/cell
[tb_dev] Currently allocated     5.68E+00 Mbytes, locked:    0 /  10
[tb_pin] Currently allocated     0.00E+00 Mbytes, locked:    0 /   0

     iteration # 33     ecut=    60.00 Ry     beta= 0.20
     Davidson diagonalization with overlap

---- Real-time Memory Report at c_bands before calling an iterative solver
          1746 MiB given to the printing process from OS
          1523 MiB allocation reported by mallinfo(arena+hblkhd)
         57541 MiB available memory on the node where the printing process lives
     GPU memory used/free/total (MiB): 1978 / 14302 / 16280
------------------
     ethr =  1.18E-08,  avg # of iterations =  1.0

     total cpu time spent up to now is      214.8 secs

     total energy              =    -488.98710010 Ry
     estimated scf accuracy    <       0.00002525 Ry

     total magnetization       =     6.34 Bohr mag/cell
     absolute magnetization    =     6.47 Bohr mag/cell
[tb_dev] Currently allocated     5.68E+00 Mbytes, locked:    0 /  10
[tb_pin] Currently allocated     0.00E+00 Mbytes, locked:    0 /   0

     iteration # 34     ecut=    60.00 Ry     beta= 0.20
     Davidson diagonalization with overlap

---- Real-time Memory Report at c_bands before calling an iterative solver
          1746 MiB given to the printing process from OS
          1523 MiB allocation reported by mallinfo(arena+hblkhd)
         57540 MiB available memory on the node where the printing process lives
     GPU memory used/free/total (MiB): 1978 / 14302 / 16280
------------------
     ethr =  1.18E-08,  avg # of iterations =  2.1

     total cpu time spent up to now is      220.5 secs

     total energy              =    -488.98711985 Ry
     estimated scf accuracy    <       0.00001633 Ry

     total magnetization       =     6.30 Bohr mag/cell
     absolute magnetization    =     6.43 Bohr mag/cell
[tb_dev] Currently allocated     5.68E+00 Mbytes, locked:    0 /  10
[tb_pin] Currently allocated     0.00E+00 Mbytes, locked:    0 /   0

     iteration # 35     ecut=    60.00 Ry     beta= 0.20
     Davidson diagonalization with overlap

---- Real-time Memory Report at c_bands before calling an iterative solver
          1746 MiB given to the printing process from OS
          1523 MiB allocation reported by mallinfo(arena+hblkhd)
         57542 MiB available memory on the node where the printing process lives
     GPU memory used/free/total (MiB): 1978 / 14302 / 16280
------------------
     ethr =  1.18E-08,  avg # of iterations =  1.0

     total cpu time spent up to now is      225.0 secs

     total energy              =    -488.98651992 Ry
     estimated scf accuracy    <       0.00001667 Ry

     total magnetization       =     6.31 Bohr mag/cell
     absolute magnetization    =     6.43 Bohr mag/cell
[tb_dev] Currently allocated     5.68E+00 Mbytes, locked:    0 /  10
[tb_pin] Currently allocated     0.00E+00 Mbytes, locked:    0 /   0

     iteration # 36     ecut=    60.00 Ry     beta= 0.20
     Davidson diagonalization with overlap

---- Real-time Memory Report at c_bands before calling an iterative solver
          1746 MiB given to the printing process from OS
          1523 MiB allocation reported by mallinfo(arena+hblkhd)
         57541 MiB available memory on the node where the printing process lives
     GPU memory used/free/total (MiB): 1978 / 14302 / 16280
------------------
     ethr =  1.18E-08,  avg # of iterations =  5.0

     total cpu time spent up to now is      233.7 secs

     total energy              =    -488.98590873 Ry
     estimated scf accuracy    <       0.00002701 Ry

     total magnetization       =     6.05 Bohr mag/cell
     absolute magnetization    =     6.17 Bohr mag/cell
[tb_dev] Currently allocated     5.68E+00 Mbytes, locked:    0 /  10
[tb_pin] Currently allocated     0.00E+00 Mbytes, locked:    0 /   0

     iteration # 37     ecut=    60.00 Ry     beta= 0.20
     Davidson diagonalization with overlap

---- Real-time Memory Report at c_bands before calling an iterative solver
          1746 MiB given to the printing process from OS
          1523 MiB allocation reported by mallinfo(arena+hblkhd)
         57542 MiB available memory on the node where the printing process lives
     GPU memory used/free/total (MiB): 1978 / 14302 / 16280
------------------
     ethr =  1.18E-08,  avg # of iterations =  5.0

     total cpu time spent up to now is      242.4 secs

     total energy              =    -488.98705753 Ry
     estimated scf accuracy    <       0.00002215 Ry

     total magnetization       =     6.33 Bohr mag/cell
     absolute magnetization    =     6.46 Bohr mag/cell
[tb_dev] Currently allocated     5.68E+00 Mbytes, locked:    0 /  10
[tb_pin] Currently allocated     0.00E+00 Mbytes, locked:    0 /   0

     iteration # 38     ecut=    60.00 Ry     beta= 0.20
     Davidson diagonalization with overlap

---- Real-time Memory Report at c_bands before calling an iterative solver
          1746 MiB given to the printing process from OS
          1523 MiB allocation reported by mallinfo(arena+hblkhd)
         57542 MiB available memory on the node where the printing process lives
     GPU memory used/free/total (MiB): 1978 / 14302 / 16280
------------------
     ethr =  1.18E-08,  avg # of iterations =  2.0

     total cpu time spent up to now is      247.7 secs

     total energy              =    -488.98621885 Ry
     estimated scf accuracy    <       0.00002761 Ry

     total magnetization       =     6.35 Bohr mag/cell
     absolute magnetization    =     6.48 Bohr mag/cell
[tb_dev] Currently allocated     5.68E+00 Mbytes, locked:    0 /  10
[tb_pin] Currently allocated     0.00E+00 Mbytes, locked:    0 /   0

     iteration # 39     ecut=    60.00 Ry     beta= 0.20
     Davidson diagonalization with overlap

---- Real-time Memory Report at c_bands before calling an iterative solver
          1746 MiB given to the printing process from OS
          1523 MiB allocation reported by mallinfo(arena+hblkhd)
         57542 MiB available memory on the node where the printing process lives
     GPU memory used/free/total (MiB): 1978 / 14302 / 16280
------------------
     ethr =  1.18E-08,  avg # of iterations =  5.1

     total cpu time spent up to now is      256.6 secs

     total energy              =    -488.98677792 Ry
     estimated scf accuracy    <       0.00002549 Ry

     total magnetization       =     6.05 Bohr mag/cell
     absolute magnetization    =     6.18 Bohr mag/cell
[tb_dev] Currently allocated     5.68E+00 Mbytes, locked:    0 /  10
[tb_pin] Currently allocated     0.00E+00 Mbytes, locked:    0 /   0

     iteration # 40     ecut=    60.00 Ry     beta= 0.20
     Davidson diagonalization with overlap

---- Real-time Memory Report at c_bands before calling an iterative solver
          1746 MiB given to the printing process from OS
          1523 MiB allocation reported by mallinfo(arena+hblkhd)
         57541 MiB available memory on the node where the printing process lives
     GPU memory used/free/total (MiB): 1978 / 14302 / 16280
------------------
     ethr =  1.18E-08,  avg # of iterations =  5.0

     total cpu time spent up to now is      265.3 secs

     total energy              =    -488.98703878 Ry
     estimated scf accuracy    <       0.00076326 Ry

     total magnetization       =     5.65 Bohr mag/cell
     absolute magnetization    =     5.89 Bohr mag/cell
[tb_dev] Currently allocated     5.68E+00 Mbytes, locked:    0 /  10
[tb_pin] Currently allocated     0.00E+00 Mbytes, locked:    0 /   0

     iteration # 41     ecut=    60.00 Ry     beta= 0.20
     Davidson diagonalization with overlap

---- Real-time Memory Report at c_bands before calling an iterative solver
          1746 MiB given to the printing process from OS
          1523 MiB allocation reported by mallinfo(arena+hblkhd)
         57542 MiB available memory on the node where the printing process lives
     GPU memory used/free/total (MiB): 1978 / 14302 / 16280
------------------
     ethr =  1.18E-08,  avg # of iterations =  4.5

     total cpu time spent up to now is      272.9 secs

     total energy              =    -488.98735243 Ry
     estimated scf accuracy    <       0.00013420 Ry

     total magnetization       =     5.89 Bohr mag/cell
     absolute magnetization    =     6.04 Bohr mag/cell
[tb_dev] Currently allocated     5.68E+00 Mbytes, locked:    0 /  10
[tb_pin] Currently allocated     0.00E+00 Mbytes, locked:    0 /   0

     iteration # 42     ecut=    60.00 Ry     beta= 0.20
     Davidson diagonalization with overlap

---- Real-time Memory Report at c_bands before calling an iterative solver
          1746 MiB given to the printing process from OS
          1523 MiB allocation reported by mallinfo(arena+hblkhd)
         57543 MiB available memory on the node where the printing process lives
     GPU memory used/free/total (MiB): 1978 / 14302 / 16280
------------------
     ethr =  1.18E-08,  avg # of iterations =  2.4

     total cpu time spent up to now is      278.8 secs

     total energy              =    -488.98591354 Ry
     estimated scf accuracy    <       0.00006856 Ry

     total magnetization       =     5.96 Bohr mag/cell
     absolute magnetization    =     6.10 Bohr mag/cell
[tb_dev] Currently allocated     5.68E+00 Mbytes, locked:    0 /  10
[tb_pin] Currently allocated     0.00E+00 Mbytes, locked:    0 /   0

     iteration # 43     ecut=    60.00 Ry     beta= 0.20
     Davidson diagonalization with overlap

---- Real-time Memory Report at c_bands before calling an iterative solver
          1746 MiB given to the printing process from OS
          1523 MiB allocation reported by mallinfo(arena+hblkhd)
         57542 MiB available memory on the node where the printing process lives
     GPU memory used/free/total (MiB): 1978 / 14302 / 16280
------------------
     ethr =  1.18E-08,  avg # of iterations =  5.1

     total cpu time spent up to now is      287.9 secs

     total energy              =    -488.98675200 Ry
     estimated scf accuracy    <       0.00001273 Ry

     total magnetization       =     6.28 Bohr mag/cell
     absolute magnetization    =     6.40 Bohr mag/cell
[tb_dev] Currently allocated     5.68E+00 Mbytes, locked:    0 /  10
[tb_pin] Currently allocated     0.00E+00 Mbytes, locked:    0 /   0

     iteration # 44     ecut=    60.00 Ry     beta= 0.20
     Davidson diagonalization with overlap

---- Real-time Memory Report at c_bands before calling an iterative solver
          1746 MiB given to the printing process from OS
          1523 MiB allocation reported by mallinfo(arena+hblkhd)
         57543 MiB available memory on the node where the printing process lives
     GPU memory used/free/total (MiB): 1978 / 14302 / 16280
------------------
     ethr =  1.18E-08,  avg # of iterations =  4.5

     total cpu time spent up to now is      295.8 secs

     total energy              =    -488.98701880 Ry
     estimated scf accuracy    <       0.00004955 Ry

     total magnetization       =     6.39 Bohr mag/cell
     absolute magnetization    =     6.52 Bohr mag/cell
[tb_dev] Currently allocated     5.68E+00 Mbytes, locked:    0 /  10
[tb_pin] Currently allocated     0.00E+00 Mbytes, locked:    0 /   0

     iteration # 45     ecut=    60.00 Ry     beta= 0.20
     Davidson diagonalization with overlap

---- Real-time Memory Report at c_bands before calling an iterative solver
          1746 MiB given to the printing process from OS
          1523 MiB allocation reported by mallinfo(arena+hblkhd)
         57542 MiB available memory on the node where the printing process lives
     GPU memory used/free/total (MiB): 1978 / 14302 / 16280
------------------
     ethr =  1.18E-08,  avg # of iterations =  3.5

     total cpu time spent up to now is      302.8 secs

     total energy              =    -488.98700672 Ry
     estimated scf accuracy    <       0.00002009 Ry

     total magnetization       =     6.32 Bohr mag/cell
     absolute magnetization    =     6.45 Bohr mag/cell
[tb_dev] Currently allocated     5.68E+00 Mbytes, locked:    0 /  10
[tb_pin] Currently allocated     0.00E+00 Mbytes, locked:    0 /   0

     iteration # 46     ecut=    60.00 Ry     beta= 0.20
     Davidson diagonalization with overlap

---- Real-time Memory Report at c_bands before calling an iterative solver
          1746 MiB given to the printing process from OS
          1523 MiB allocation reported by mallinfo(arena+hblkhd)
         57543 MiB available memory on the node where the printing process lives
     GPU memory used/free/total (MiB): 1978 / 14302 / 16280
------------------
     ethr =  1.18E-08,  avg # of iterations =  3.0

     total cpu time spent up to now is      309.2 secs

     total energy              =    -488.98697303 Ry
     estimated scf accuracy    <       0.00003656 Ry

     total magnetization       =     6.36 Bohr mag/cell
     absolute magnetization    =     6.49 Bohr mag/cell
[tb_dev] Currently allocated     5.68E+00 Mbytes, locked:    0 /  10
[tb_pin] Currently allocated     0.00E+00 Mbytes, locked:    0 /   0

     iteration # 47     ecut=    60.00 Ry     beta= 0.20
     Davidson diagonalization with overlap

---- Real-time Memory Report at c_bands before calling an iterative solver
          1746 MiB given to the printing process from OS
          1523 MiB allocation reported by mallinfo(arena+hblkhd)
         57543 MiB available memory on the node where the printing process lives
     GPU memory used/free/total (MiB): 1978 / 14302 / 16280
------------------
     ethr =  1.18E-08,  avg # of iterations =  4.4

     total cpu time spent up to now is      316.8 secs

     total energy              =    -488.98716079 Ry
     estimated scf accuracy    <       0.00001013 Ry

     total magnetization       =     6.26 Bohr mag/cell
     absolute magnetization    =     6.38 Bohr mag/cell
[tb_dev] Currently allocated     5.68E+00 Mbytes, locked:    0 /  10
[tb_pin] Currently allocated     0.00E+00 Mbytes, locked:    0 /   0

     iteration # 48     ecut=    60.00 Ry     beta= 0.20
     Davidson diagonalization with overlap

---- Real-time Memory Report at c_bands before calling an iterative solver
          1746 MiB given to the printing process from OS
          1523 MiB allocation reported by mallinfo(arena+hblkhd)
         57543 MiB available memory on the node where the printing process lives
     GPU memory used/free/total (MiB): 1978 / 14302 / 16280
------------------
     ethr =  1.18E-08,  avg # of iterations =  1.0

     total cpu time spent up to now is      321.0 secs

     total energy              =    -488.98716739 Ry
     estimated scf accuracy    <       0.00001109 Ry

     total magnetization       =     6.26 Bohr mag/cell
     absolute magnetization    =     6.38 Bohr mag/cell
[tb_dev] Currently allocated     5.68E+00 Mbytes, locked:    0 /  10
[tb_pin] Currently allocated     0.00E+00 Mbytes, locked:    0 /   0

     iteration # 49     ecut=    60.00 Ry     beta= 0.20
     Davidson diagonalization with overlap

---- Real-time Memory Report at c_bands before calling an iterative solver
          1746 MiB given to the printing process from OS
          1523 MiB allocation reported by mallinfo(arena+hblkhd)
         57543 MiB available memory on the node where the printing process lives
     GPU memory used/free/total (MiB): 1978 / 14302 / 16280
------------------
     ethr =  1.18E-08,  avg # of iterations =  1.1

     total cpu time spent up to now is      325.3 secs

     total energy              =    -488.98698121 Ry
     estimated scf accuracy    <       0.00001034 Ry

     total magnetization       =     6.25 Bohr mag/cell
     absolute magnetization    =     6.37 Bohr mag/cell
[tb_dev] Currently allocated     5.68E+00 Mbytes, locked:    0 /  10
[tb_pin] Currently allocated     0.00E+00 Mbytes, locked:    0 /   0

     iteration # 50     ecut=    60.00 Ry     beta= 0.20
     Davidson diagonalization with overlap

---- Real-time Memory Report at c_bands before calling an iterative solver
          1746 MiB given to the printing process from OS
          1523 MiB allocation reported by mallinfo(arena+hblkhd)
         57543 MiB available memory on the node where the printing process lives
     GPU memory used/free/total (MiB): 1978 / 14302 / 16280
------------------
     ethr =  1.18E-08,  avg # of iterations =  3.5

     total cpu time spent up to now is      332.2 secs

     total energy              =    -488.98496095 Ry
     estimated scf accuracy    <       0.00002317 Ry

     total magnetization       =     6.33 Bohr mag/cell
     absolute magnetization    =     6.46 Bohr mag/cell
[tb_dev] Currently allocated     5.68E+00 Mbytes, locked:    0 /  10
[tb_pin] Currently allocated     0.00E+00 Mbytes, locked:    0 /   0

     iteration # 51     ecut=    60.00 Ry     beta= 0.20
     Davidson diagonalization with overlap

---- Real-time Memory Report at c_bands before calling an iterative solver
          1746 MiB given to the printing process from OS
          1523 MiB allocation reported by mallinfo(arena+hblkhd)
         57543 MiB available memory on the node where the printing process lives
     GPU memory used/free/total (MiB): 1978 / 14302 / 16280
------------------
     ethr =  1.18E-08,  avg # of iterations =  5.9

     total cpu time spent up to now is      342.0 secs

     total energy              =    -488.98473283 Ry
     estimated scf accuracy    <       0.00039397 Ry

     total magnetization       =     6.55 Bohr mag/cell
     absolute magnetization    =     6.72 Bohr mag/cell
[tb_dev] Currently allocated     5.68E+00 Mbytes, locked:    0 /  10
[tb_pin] Currently allocated     0.00E+00 Mbytes, locked:    0 /   0

     iteration # 52     ecut=    60.00 Ry     beta= 0.20
     Davidson diagonalization with overlap

---- Real-time Memory Report at c_bands before calling an iterative solver
          1746 MiB given to the printing process from OS
          1523 MiB allocation reported by mallinfo(arena+hblkhd)
         57543 MiB available memory on the node where the printing process lives
     GPU memory used/free/total (MiB): 1978 / 14302 / 16280
------------------
     ethr =  1.18E-08,  avg # of iterations =  6.0

     total cpu time spent up to now is      351.9 secs

     total energy              =    -488.98711851 Ry
     estimated scf accuracy    <       0.00000838 Ry

     total magnetization       =     6.16 Bohr mag/cell
     absolute magnetization    =     6.29 Bohr mag/cell
[tb_dev] Currently allocated     5.68E+00 Mbytes, locked:    0 /  10
[tb_pin] Currently allocated     0.00E+00 Mbytes, locked:    0 /   0

     iteration # 53     ecut=    60.00 Ry     beta= 0.20
     Davidson diagonalization with overlap

---- Real-time Memory Report at c_bands before calling an iterative solver
          1746 MiB given to the printing process from OS
          1523 MiB allocation reported by mallinfo(arena+hblkhd)
         57544 MiB available memory on the node where the printing process lives
     GPU memory used/free/total (MiB): 1978 / 14302 / 16280
------------------
     ethr =  1.18E-08,  avg # of iterations =  4.1

     total cpu time spent up to now is      359.2 secs

     total energy              =    -488.98735859 Ry
     estimated scf accuracy    <       0.00003357 Ry

     total magnetization       =     6.03 Bohr mag/cell
     absolute magnetization    =     6.15 Bohr mag/cell
[tb_dev] Currently allocated     5.68E+00 Mbytes, locked:    0 /  10
[tb_pin] Currently allocated     0.00E+00 Mbytes, locked:    0 /   0

     iteration # 54     ecut=    60.00 Ry     beta= 0.20
     Davidson diagonalization with overlap

---- Real-time Memory Report at c_bands before calling an iterative solver
          1746 MiB given to the printing process from OS
          1523 MiB allocation reported by mallinfo(arena+hblkhd)
         57543 MiB available memory on the node where the printing process lives
     GPU memory used/free/total (MiB): 1978 / 14302 / 16280
------------------
     ethr =  1.18E-08,  avg # of iterations =  2.3

     total cpu time spent up to now is      365.1 secs

     total energy              =    -488.98716966 Ry
     estimated scf accuracy    <       0.00006050 Ry

     total magnetization       =     5.97 Bohr mag/cell
     absolute magnetization    =     6.11 Bohr mag/cell
[tb_dev] Currently allocated     5.68E+00 Mbytes, locked:    0 /  10
[tb_pin] Currently allocated     0.00E+00 Mbytes, locked:    0 /   0

     iteration # 55     ecut=    60.00 Ry     beta= 0.20
     Davidson diagonalization with overlap

---- Real-time Memory Report at c_bands before calling an iterative solver
          1746 MiB given to the printing process from OS
          1523 MiB allocation reported by mallinfo(arena+hblkhd)
         57544 MiB available memory on the node where the printing process lives
     GPU memory used/free/total (MiB): 1978 / 14302 / 16280
------------------
     ethr =  1.18E-08,  avg # of iterations =  4.8

     total cpu time spent up to now is      373.6 secs

     total energy              =    -488.98761136 Ry
     estimated scf accuracy    <       0.00095409 Ry

     total magnetization       =     5.61 Bohr mag/cell
     absolute magnetization    =     5.88 Bohr mag/cell
[tb_dev] Currently allocated     5.68E+00 Mbytes, locked:    0 /  10
[tb_pin] Currently allocated     0.00E+00 Mbytes, locked:    0 /   0

     iteration # 56     ecut=    60.00 Ry     beta= 0.20
     Davidson diagonalization with overlap

---- Real-time Memory Report at c_bands before calling an iterative solver
          1746 MiB given to the printing process from OS
          1523 MiB allocation reported by mallinfo(arena+hblkhd)
         57543 MiB available memory on the node where the printing process lives
     GPU memory used/free/total (MiB): 1978 / 14302 / 16280
------------------
     ethr =  1.18E-08,  avg # of iterations =  3.0

     total cpu time spent up to now is      380.0 secs

     total energy              =    -488.98770545 Ry
     estimated scf accuracy    <       0.00040137 Ry

     total magnetization       =     5.75 Bohr mag/cell
     absolute magnetization    =     5.93 Bohr mag/cell
[tb_dev] Currently allocated     5.68E+00 Mbytes, locked:    0 /  10
[tb_pin] Currently allocated     0.00E+00 Mbytes, locked:    0 /   0

     iteration # 57     ecut=    60.00 Ry     beta= 0.20
     Davidson diagonalization with overlap

---- Real-time Memory Report at c_bands before calling an iterative solver
          1746 MiB given to the printing process from OS
          1523 MiB allocation reported by mallinfo(arena+hblkhd)
         57544 MiB available memory on the node where the printing process lives
     GPU memory used/free/total (MiB): 1978 / 14302 / 16280
------------------
     ethr =  1.18E-08,  avg # of iterations =  1.3

     total cpu time spent up to now is      384.4 secs

     total energy              =    -488.98724951 Ry
     estimated scf accuracy    <       0.00034925 Ry

     total magnetization       =     5.77 Bohr mag/cell
     absolute magnetization    =     5.95 Bohr mag/cell
[tb_dev] Currently allocated     5.68E+00 Mbytes, locked:    0 /  10
[tb_pin] Currently allocated     0.00E+00 Mbytes, locked:    0 /   0

     iteration # 58     ecut=    60.00 Ry     beta= 0.20
     Davidson diagonalization with overlap

---- Real-time Memory Report at c_bands before calling an iterative solver
          1746 MiB given to the printing process from OS
          1523 MiB allocation reported by mallinfo(arena+hblkhd)
         57543 MiB available memory on the node where the printing process lives
     GPU memory used/free/total (MiB): 1978 / 14302 / 16280
------------------
     ethr =  1.18E-08,  avg # of iterations =  3.6

     total cpu time spent up to now is      391.5 secs

     total energy              =    -488.98650701 Ry
     estimated scf accuracy    <       0.00009686 Ry

     total magnetization       =     5.93 Bohr mag/cell
     absolute magnetization    =     6.06 Bohr mag/cell
[tb_dev] Currently allocated     5.68E+00 Mbytes, locked:    0 /  10
[tb_pin] Currently allocated     0.00E+00 Mbytes, locked:    0 /   0

     iteration # 59     ecut=    60.00 Ry     beta= 0.20
     Davidson diagonalization with overlap

---- Real-time Memory Report at c_bands before calling an iterative solver
          1746 MiB given to the printing process from OS
          1523 MiB allocation reported by mallinfo(arena+hblkhd)
         57543 MiB available memory on the node where the printing process lives
     GPU memory used/free/total (MiB): 1978 / 14302 / 16280
------------------
     ethr =  1.18E-08,  avg # of iterations =  4.6

     total cpu time spent up to now is      399.8 secs

     total energy              =    -488.98722144 Ry
     estimated scf accuracy    <       0.00000855 Ry

     total magnetization       =     6.18 Bohr mag/cell
     absolute magnetization    =     6.30 Bohr mag/cell
[tb_dev] Currently allocated     5.68E+00 Mbytes, locked:    0 /  10
[tb_pin] Currently allocated     0.00E+00 Mbytes, locked:    0 /   0

     iteration # 60     ecut=    60.00 Ry     beta= 0.20
     Davidson diagonalization with overlap

---- Real-time Memory Report at c_bands before calling an iterative solver
          1746 MiB given to the printing process from OS
          1523 MiB allocation reported by mallinfo(arena+hblkhd)
[...]
         57544 MiB available memory on the node where the printing process lives
     GPU memory used/free/total (MiB): 1978 / 14302 / 16280
------------------
     ethr =  1.18E-08,  avg # of iterations =  2.0

     total cpu time spent up to now is      429.7 secs

     total energy              =    -488.98679493 Ry
     estimated scf accuracy    <       0.00001574 Ry

     total magnetization       =     6.31 Bohr mag/cell
     absolute magnetization    =     6.43 Bohr mag/cell
[tb_dev] Currently allocated     5.68E+00 Mbytes, locked:    0 /  10
[tb_pin] Currently allocated     0.00E+00 Mbytes, locked:    0 /   0

     iteration # 65     ecut=    60.00 Ry     beta= 0.20
     Davidson diagonalization with overlap

---- Real-time Memory Report at c_bands before calling an iterative solver
          1746 MiB given to the printing process from OS
          1523 MiB allocation reported by mallinfo(arena+hblkhd)
         57543 MiB available memory on the node where the printing process lives
     GPU memory used/free/total (MiB): 1978 / 14302 / 16280
------------------
     ethr =  1.18E-08,  avg # of iterations =  4.1

     total cpu time spent up to now is      437.2 secs

     total energy              =    -488.98672194 Ry
     estimated scf accuracy    <       0.00005686 Ry

     total magnetization       =     6.40 Bohr mag/cell
     absolute magnetization    =     6.54 Bohr mag/cell
[tb_dev] Currently allocated     5.68E+00 Mbytes, locked:    0 /  10
[tb_pin] Currently allocated     0.00E+00 Mbytes, locked:    0 /   0

     iteration # 66     ecut=    60.00 Ry     beta= 0.20
     Davidson diagonalization with overlap

---- Real-time Memory Report at c_bands before calling an iterative solver
          1746 MiB given to the printing process from OS
          1523 MiB allocation reported by mallinfo(arena+hblkhd)
         57544 MiB available memory on the node where the printing process lives
     GPU memory used/free/total (MiB): 1978 / 14302 / 16280
------------------
     ethr =  1.18E-08,  avg # of iterations =  4.7

     total cpu time spent up to now is      445.7 secs

     total energy              =    -488.98685753 Ry
     estimated scf accuracy    <       0.00000862 Ry

     total magnetization       =     6.23 Bohr mag/cell
     absolute magnetization    =     6.35 Bohr mag/cell
[tb_dev] Currently allocated     5.68E+00 Mbytes, locked:    0 /  10
[tb_pin] Currently allocated     0.00E+00 Mbytes, locked:    0 /   0

     iteration # 67     ecut=    60.00 Ry     beta= 0.20
     Davidson diagonalization with overlap

---- Real-time Memory Report at c_bands before calling an iterative solver
          1746 MiB given to the printing process from OS
          1523 MiB allocation reported by mallinfo(arena+hblkhd)
         57544 MiB available memory on the node where the printing process lives
     GPU memory used/free/total (MiB): 1978 / 14302 / 16280
------------------
     ethr =  1.18E-08,  avg # of iterations =  4.4

     total cpu time spent up to now is      453.4 secs

     total energy              =    -488.98697001 Ry
     estimated scf accuracy    <       0.00002675 Ry

     total magnetization       =     6.34 Bohr mag/cell
     absolute magnetization    =     6.47 Bohr mag/cell
[tb_dev] Currently allocated     5.68E+00 Mbytes, locked:    0 /  10
[tb_pin] Currently allocated     0.00E+00 Mbytes, locked:    0 /   0

     iteration # 68     ecut=    60.00 Ry     beta= 0.20
     Davidson diagonalization with overlap

---- Real-time Memory Report at c_bands before calling an iterative solver
          1746 MiB given to the printing process from OS
          1523 MiB allocation reported by mallinfo(arena+hblkhd)
         57545 MiB available memory on the node where the printing process lives
     GPU memory used/free/total (MiB): 1978 / 14302 / 16280
------------------
     ethr =  1.18E-08,  avg # of iterations =  4.5

     total cpu time spent up to now is      461.2 secs

     total energy              =    -488.98672778 Ry
     estimated scf accuracy    <       0.00000780 Ry

     total magnetization       =     6.23 Bohr mag/cell
     absolute magnetization    =     6.35 Bohr mag/cell
[tb_dev] Currently allocated     5.68E+00 Mbytes, locked:    0 /  10
[tb_pin] Currently allocated     0.00E+00 Mbytes, locked:    0 /   0

     iteration # 69     ecut=    60.00 Ry     beta= 0.20
     Davidson diagonalization with overlap

---- Real-time Memory Report at c_bands before calling an iterative solver
          1746 MiB given to the printing process from OS
          1523 MiB allocation reported by mallinfo(arena+hblkhd)
         57544 MiB available memory on the node where the printing process lives
     GPU memory used/free/total (MiB): 1978 / 14302 / 16280
------------------
     ethr =  1.18E-08,  avg # of iterations =  4.8

     total cpu time spent up to now is      469.7 secs

     total energy              =    -488.98483791 Ry
     estimated scf accuracy    <       0.00005698 Ry

     total magnetization       =     5.98 Bohr mag/cell
     absolute magnetization    =     6.11 Bohr mag/cell
[tb_dev] Currently allocated     5.68E+00 Mbytes, locked:    0 /  10
[tb_pin] Currently allocated     0.00E+00 Mbytes, locked:    0 /   0

     iteration # 70     ecut=    60.00 Ry     beta= 0.20
     Davidson diagonalization with overlap

---- Real-time Memory Report at c_bands before calling an iterative solver
          1746 MiB given to the printing process from OS
          1523 MiB allocation reported by mallinfo(arena+hblkhd)
         57544 MiB available memory on the node where the printing process lives
     GPU memory used/free/total (MiB): 1978 / 14302 / 16280
------------------
     ethr =  1.18E-08,  avg # of iterations =  5.9

     total cpu time spent up to now is      479.5 secs

     total energy              =    -488.98702148 Ry
     estimated scf accuracy    <       0.00003549 Ry

     total magnetization       =     6.37 Bohr mag/cell
     absolute magnetization    =     6.50 Bohr mag/cell
[tb_dev] Currently allocated     5.68E+00 Mbytes, locked:    0 /  10
[tb_pin] Currently allocated     0.00E+00 Mbytes, locked:    0 /   0

     iteration # 71     ecut=    60.00 Ry     beta= 0.20
     Davidson diagonalization with overlap

---- Real-time Memory Report at c_bands before calling an iterative solver
          1746 MiB given to the printing process from OS
          1523 MiB allocation reported by mallinfo(arena+hblkhd)
         57544 MiB available memory on the node where the printing process lives
     GPU memory used/free/total (MiB): 1978 / 14302 / 16280
------------------
     ethr =  1.18E-08,  avg # of iterations =  1.0

     total cpu time spent up to now is      483.8 secs

     total energy              =    -488.98704228 Ry
     estimated scf accuracy    <       0.00003851 Ry

     total magnetization       =     6.37 Bohr mag/cell
     absolute magnetization    =     6.50 Bohr mag/cell
[tb_dev] Currently allocated     5.68E+00 Mbytes, locked:    0 /  10
[tb_pin] Currently allocated     0.00E+00 Mbytes, locked:    0 /   0

     iteration # 72     ecut=    60.00 Ry     beta= 0.20
     Davidson diagonalization with overlap

---- Real-time Memory Report at c_bands before calling an iterative solver
          1746 MiB given to the printing process from OS
          1523 MiB allocation reported by mallinfo(arena+hblkhd)
         57544 MiB available memory on the node where the printing process lives
     GPU memory used/free/total (MiB): 1978 / 14302 / 16280
------------------
     ethr =  1.18E-08,  avg # of iterations =  2.0

     total cpu time spent up to now is      488.7 secs

     total energy              =    -488.98694956 Ry
     estimated scf accuracy    <       0.00003223 Ry

     total magnetization       =     6.36 Bohr mag/cell
     absolute magnetization    =     6.49 Bohr mag/cell
[tb_dev] Currently allocated     5.68E+00 Mbytes, locked:    0 /  10
[tb_pin] Currently allocated     0.00E+00 Mbytes, locked:    0 /   0

     iteration # 73     ecut=    60.00 Ry     beta= 0.20
     Davidson diagonalization with overlap

---- Real-time Memory Report at c_bands before calling an iterative solver
          1746 MiB given to the printing process from OS
          1523 MiB allocation reported by mallinfo(arena+hblkhd)
         57545 MiB available memory on the node where the printing process lives
     GPU memory used/free/total (MiB): 1978 / 14302 / 16280
------------------
     ethr =  1.18E-08,  avg # of iterations =  2.2

     total cpu time spent up to now is      494.7 secs

     total energy              =    -488.98682587 Ry
     estimated scf accuracy    <       0.00005318 Ry

     total magnetization       =     6.39 Bohr mag/cell
     absolute magnetization    =     6.53 Bohr mag/cell
[tb_dev] Currently allocated     5.68E+00 Mbytes, locked:    0 /  10
[tb_pin] Currently allocated     0.00E+00 Mbytes, locked:    0 /   0

     iteration # 74     ecut=    60.00 Ry     beta= 0.20
     Davidson diagonalization with overlap

---- Real-time Memory Report at c_bands before calling an iterative solver
          1746 MiB given to the printing process from OS
          1523 MiB allocation reported by mallinfo(arena+hblkhd)
         57544 MiB available memory on the node where the printing process lives
     GPU memory used/free/total (MiB): 1978 / 14302 / 16280
------------------
     ethr =  1.18E-08,  avg # of iterations =  3.2

     total cpu time spent up to now is      501.2 secs

     total energy              =    -488.98683179 Ry
     estimated scf accuracy    <       0.00009068 Ry

     total magnetization       =     6.43 Bohr mag/cell
     absolute magnetization    =     6.58 Bohr mag/cell
[tb_dev] Currently allocated     5.68E+00 Mbytes, locked:    0 /  10
[tb_pin] Currently allocated     0.00E+00 Mbytes, locked:    0 /   0

     iteration # 75     ecut=    60.00 Ry     beta= 0.20
     Davidson diagonalization with overlap

---- Real-time Memory Report at c_bands before calling an iterative solver
          1746 MiB given to the printing process from OS
          1523 MiB allocation reported by mallinfo(arena+hblkhd)
         57544 MiB available memory on the node where the printing process lives
     GPU memory used/free/total (MiB): 1978 / 14302 / 16280
------------------
     ethr =  1.18E-08,  avg # of iterations =  1.6

     total cpu time spent up to now is      505.9 secs

     total energy              =    -488.98547572 Ry
     estimated scf accuracy    <       0.00010025 Ry

     total magnetization       =     6.44 Bohr mag/cell
     absolute magnetization    =     6.58 Bohr mag/cell
[tb_dev] Currently allocated     5.68E+00 Mbytes, locked:    0 /  10
[tb_pin] Currently allocated     0.00E+00 Mbytes, locked:    0 /   0

     iteration # 76     ecut=    60.00 Ry     beta= 0.20
     Davidson diagonalization with overlap

---- Real-time Memory Report at c_bands before calling an iterative solver
          1746 MiB given to the printing process from OS
          1523 MiB allocation reported by mallinfo(arena+hblkhd)
         57544 MiB available memory on the node where the printing process lives
     GPU memory used/free/total (MiB): 1978 / 14302 / 16280
------------------
     ethr =  1.18E-08,  avg # of iterations =  5.0

     total cpu time spent up to now is      514.5 secs

     total energy              =    -488.98644319 Ry
     estimated scf accuracy    <       0.00050966 Ry

     total magnetization       =     6.58 Bohr mag/cell
     absolute magnetization    =     6.75 Bohr mag/cell
[tb_dev] Currently allocated     5.68E+00 Mbytes, locked:    0 /  10
[tb_pin] Currently allocated     0.00E+00 Mbytes, locked:    0 /   0

     iteration # 77     ecut=    60.00 Ry     beta= 0.20
     Davidson diagonalization with overlap

---- Real-time Memory Report at c_bands before calling an iterative solver
          1746 MiB given to the printing process from OS
          1523 MiB allocation reported by mallinfo(arena+hblkhd)
         57543 MiB available memory on the node where the printing process lives
     GPU memory used/free/total (MiB): 1978 / 14302 / 16280
------------------
     ethr =  1.18E-08,  avg # of iterations =  4.7

     total cpu time spent up to now is      522.8 secs

     total energy              =    -488.98547040 Ry
     estimated scf accuracy    <       0.00013816 Ry

     total magnetization       =     6.47 Bohr mag/cell
     absolute magnetization    =     6.62 Bohr mag/cell
[tb_dev] Currently allocated     5.68E+00 Mbytes, locked:    0 /  10
[tb_pin] Currently allocated     0.00E+00 Mbytes, locked:    0 /   0

     iteration # 78     ecut=    60.00 Ry     beta= 0.20
     Davidson diagonalization with overlap

---- Real-time Memory Report at c_bands before calling an iterative solver
          1746 MiB given to the printing process from OS
          1523 MiB allocation reported by mallinfo(arena+hblkhd)
         57545 MiB available memory on the node where the printing process lives
     GPU memory used/free/total (MiB): 1978 / 14302 / 16280
------------------
     ethr =  1.18E-08,  avg # of iterations =  4.7

     total cpu time spent up to now is      531.2 secs

     total energy              =    -488.98439307 Ry
     estimated scf accuracy    <       0.00056643 Ry

     total magnetization       =     6.59 Bohr mag/cell
     absolute magnetization    =     6.77 Bohr mag/cell
[tb_dev] Currently allocated     5.68E+00 Mbytes, locked:    0 /  10
[tb_pin] Currently allocated     0.00E+00 Mbytes, locked:    0 /   0

     iteration # 79     ecut=    60.00 Ry     beta= 0.20
     Davidson diagonalization with overlap

---- Real-time Memory Report at c_bands before calling an iterative solver
          1746 MiB given to the printing process from OS
          1523 MiB allocation reported by mallinfo(arena+hblkhd)
         57544 MiB available memory on the node where the printing process lives
     GPU memory used/free/total (MiB): 1978 / 14302 / 16280
------------------
     ethr =  1.18E-08,  avg # of iterations =  6.5

     total cpu time spent up to now is      541.6 secs

     total energy              =    -488.98720607 Ry
     estimated scf accuracy    <       0.00000833 Ry

     total magnetization       =     6.18 Bohr mag/cell
     absolute magnetization    =     6.30 Bohr mag/cell
[tb_dev] Currently allocated     5.68E+00 Mbytes, locked:    0 /  10
[tb_pin] Currently allocated     0.00E+00 Mbytes, locked:    0 /   0

     iteration # 80     ecut=    60.00 Ry     beta= 0.20
     Davidson diagonalization with overlap

---- Real-time Memory Report at c_bands before calling an iterative solver
          1746 MiB given to the printing process from OS
          1523 MiB allocation reported by mallinfo(arena+hblkhd)
         57544 MiB available memory on the node where the printing process lives
     GPU memory used/free/total (MiB): 1978 / 14302 / 16280
------------------
     ethr =  1.18E-08,  avg # of iterations =  3.0

     total cpu time spent up to now is      548.0 secs

     total energy              =    -488.98726658 Ry
     estimated scf accuracy    <       0.00001207 Ry

     total magnetization       =     6.12 Bohr mag/cell
     absolute magnetization    =     6.24 Bohr mag/cell

     End of self-consistent calculation

     convergence NOT achieved after  80 iterations: stopping

     Writing config to output data dir ./out/aiida.save/
 
     init_run     :     10.28s CPU      2.55s WALL (       1 calls)
     electrons    :    710.24s CPU    545.01s WALL (       1 calls)

     Called by init_run:
     wfcinit      :      0.35s CPU      0.35s WALL (       1 calls)
                                        0.35s GPU  (       1 calls)
     potinit      :      0.33s CPU      0.11s WALL (       1 calls)
     hinit0       :      7.31s CPU      1.41s WALL (       1 calls)

     Called by electrons:
     c_bands      :    533.39s CPU    468.42s WALL (      81 calls)
     sum_band     :     59.23s CPU     65.38s WALL (      81 calls)
     v_of_rho     :     27.03s CPU      2.47s WALL (      81 calls)
     v_h          :      4.02s CPU      0.36s WALL (      81 calls)
     v_xc         :     23.00s CPU      2.12s WALL (      81 calls)
     newd         :     42.56s CPU      4.21s WALL (      81 calls)
                                        4.20s GPU  (      81 calls)
     mix_rho      :     34.40s CPU      3.40s WALL (      81 calls)

     Called by c_bands:
     init_us_2    :     24.12s CPU     23.76s WALL (   22680 calls)
     init_us_2:gp :     23.68s CPU     23.38s WALL (   22680 calls)
     cegterg      :    466.88s CPU    410.95s WALL (   11340 calls)

     Called by sum_band:
     sum_band:wei :      0.50s CPU      0.50s WALL (      81 calls)
                                        0.50s GPU  (      81 calls)
     sum_band:loo :     53.74s CPU     59.75s WALL (      81 calls)
                                       59.75s GPU  (      81 calls)
     sum_band:buf :     16.29s CPU     17.28s WALL (   11340 calls)
                                       17.21s GPU  (   11340 calls)
     sum_band:ini :     10.11s CPU     11.65s WALL (   11340 calls)
                                       11.59s GPU  (   11340 calls)
     sum_band:cal :      0.29s CPU      2.25s WALL (   11340 calls)
                                        1.87s GPU  (   11340 calls)
     sum_band:bec :      2.51s CPU      3.01s WALL (   11340 calls)
                                        2.94s GPU  (   11340 calls)
     addusdens    :      3.34s CPU      3.44s WALL (      81 calls)
                                        3.44s GPU  (      81 calls)
     addusd:skk   :      0.03s CPU      0.03s WALL (     243 calls)
                                        0.03s GPU  (     243 calls)

     Called by *egterg:
     cdiaghg      :    164.30s CPU    156.54s WALL (   47968 calls)
                                      156.21s GPU  (   47968 calls)
     cegterg:over :     11.52s CPU      9.95s WALL (   36908 calls)
     cegterg:upda :     19.76s CPU     17.05s WALL (   36908 calls)
     cegterg:last :      9.64s CPU      8.22s WALL (   28991 calls)
     h_psi        :    226.05s CPU    189.95s WALL (   48248 calls)
                                      189.49s GPU  (   48248 calls)
     s_psi        :      6.98s CPU     11.65s WALL (   48248 calls)
                                       10.73s GPU  (   48248 calls)
     g_psi        :      0.31s CPU      1.48s WALL (   36908 calls)
                                        1.24s GPU  (   36908 calls)

     Called by h_psi:
     h_psi:calbec :      1.85s CPU      8.12s WALL (   48248 calls)
                                        7.81s GPU  (   48248 calls)
     vloc_psi     :    193.99s CPU    163.36s WALL (   48248 calls)
                                      163.06s GPU  (   48248 calls)
     add_vuspsi   :     12.02s CPU     14.71s WALL (   48248 calls)
                                       14.40s GPU  (   48248 calls)

     General routines
     calbec       :      1.54s CPU      1.37s WALL (   59588 calls)
     fft          :      2.47s CPU      0.47s WALL (    2025 calls)
                                        0.38s GPU  (    1863 calls)
     ffts         :      0.06s CPU      0.04s WALL (     324 calls)
                                        0.01s GPU  (     162 calls)
     fftw         :      5.88s CPU    121.69s WALL (  258270 calls)
                                      120.24s GPU  (  258270 calls)
     interpolate  :      3.79s CPU      0.34s WALL (     162 calls)
     davcio       :      0.85s CPU      1.05s WALL (     298 calls)
 
     Parallel routines
 
     PWSCF        :  12m 3.01s CPU   9m 8.84s WALL

 
   This run was terminated on:  21:53: 4  23Oct2023            

=------------------------------------------------------------------------------=
   JOB DONE.
=------------------------------------------------------------------------------=
