
     Program PWSCF v.7.2 starts on 23Oct2023 at 20: 5:52 

     This program is part of the open-source Quantum ESPRESSO suite
     for quantum simulation of materials; please cite
         "P. Giannozzi et al., J. Phys.:Condens. Matter 21 395502 (2009);
         "P. Giannozzi et al., J. Phys.:Condens. Matter 29 465901 (2017);
         "P. Giannozzi et al., J. Chem. Phys. 152 154105 (2020);
          URL http://www.quantum-espresso.org", 
     in publications or presentations arising from this work. More details at
     http://www.quantum-espresso.org/quote

     Parallel version (MPI & OpenMP), running on      12 processor cores
     Number of MPI processes:                 1
     Threads/MPI process:                    12

     MPI processes distributed on     1 nodes
     54609 MiB available memory on the printing compute node when the environment starts
 
     Reading input from aiida.in

     Current dimensions of program PWSCF are:
     Max number of different atomic species (ntypx) = 10
     Max number of k-points (npk) =  40000
     Max angular momentum in pseudopotentials (lmaxx) =  4
     Message from routine setup:
     using ibrav=0 with symmetry is DISCOURAGED, use correct ibrav instead
 
     Subspace diagonalization in iterative solution of the eigenvalue problem:
     a serial algorithm will be used

 
     G-vector sticks info
     --------------------
     sticks:   dense  smooth     PW     G-vecs:    dense   smooth      PW
     Sum        5875    2917    817               296685   104579   15353
 
     Using Slab Decomposition
 


     bravais-lattice index     =            0
     lattice parameter (alat)  =      13.3111  a.u.
     unit-cell volume          =    1667.7230 (a.u.)^3
     number of atoms/cell      =            9
     number of atomic types    =            3
     number of electrons       =        58.00
     number of Kohn-Sham states=           35
     kinetic-energy cutoff     =      60.0000  Ry
     charge density cutoff     =     480.0000  Ry
     scf convergence threshold =      1.8E-09
     mixing beta               =       0.1000
     number of iterations used =            8  plain     mixing
     Exchange-correlation= SLA  PW   PSX  PSC
                           (   1   4  10   8   0   0   0)

     GPU acceleration is ACTIVE.


     GPU used by master process:

        Device Number: 0
        Device name: Tesla P100-PCIE-16GB
        Compute capability : 60
        Ratio of single to double precision performance  : 2
        Memory Clock Rate (KHz): 715000
        Memory Bus Width (bits): 4096
        Peak Memory Bandwidth (GB/s): 732.16

     celldm(1)=  13.311070  celldm(2)=   0.000000  celldm(3)=   0.000000
     celldm(4)=   0.000000  celldm(5)=   0.000000  celldm(6)=   0.000000

     crystal axes: (cart. coord. in units of alat)
               a(1) = (   0.000000   0.707107   0.707107 )  
               a(2) = (   0.707107   0.000000   0.707107 )  
               a(3) = (   0.707107   0.707107   0.000000 )  

     reciprocal axes: (cart. coord. in units 2 pi/alat)
               b(1) = ( -0.707107  0.707107  0.707107 )  
               b(2) = (  0.707107 -0.707107  0.707107 )  
               b(3) = (  0.707107  0.707107 -0.707107 )  


     PseudoPot. # 1 for Cl read from file:
     ./pseudo/cl_pbesol_v1.4.uspp.F.UPF
     MD5 check sum: ed6bbcf06f19043c0df9f6394706ff8f
     Pseudo is Ultrasoft + core correction, Zval =  7.0
     Generated by new atomic code, or converted to UPF format
     Using radial grid of  909 points,  6 beta functions with: 
                l(1) =   0
                l(2) =   0
                l(3) =   1
                l(4) =   1
                l(5) =   2
                l(6) =   2
     Q(r) pseudized with  8 coefficients,  rinner =    1.300   1.300   1.300
                                                       1.300   1.300

     PseudoPot. # 2 for N  read from file:
     ./pseudo/N.pbesol-theos.UPF
     MD5 check sum: 1b64827339d390a5a22afef3ff345c9d
     Pseudo is Ultrasoft + core correction, Zval =  5.0
     Generated using "atomic" code by A. Dal Corso  v.5.1
     Using radial grid of 1085 points,  4 beta functions with: 
                l(1) =   0
                l(2) =   0
                l(3) =   1
                l(4) =   1
     Q(r) pseudized with 0 coefficients 


     PseudoPot. # 3 for Se read from file:
     ./pseudo/se_pbesol_v1.uspp.F.UPF
     MD5 check sum: a3b4745ad650bb7419ce2e0d5f176975
     Pseudo is Ultrasoft + core correction, Zval =  6.0
     Generated by new atomic code, or converted to UPF format
     Using radial grid of  877 points,  6 beta functions with: 
                l(1) =   0
                l(2) =   0
                l(3) =   1
                l(4) =   1
                l(5) =   2
                l(6) =   2
     Q(r) pseudized with  8 coefficients,  rinner =    1.300   1.300   1.300
                                                       1.300   1.300

     atomic species   valence    mass     pseudopotential
        Cl             7.00    35.45300     Cl( 1.00)
        N              5.00    14.00670     N ( 1.00)
        Se             6.00    78.96000     Se( 1.00)

     Starting magnetic structure 
     atomic species   magnetization
        Cl           0.100
        N            0.100
        Se           0.100

     48 Sym. Ops., with inversion, found


                                    s                        frac. trans.

      isym =  1     identity                                     

 cryst.   s( 1) = (     1          0          0      )
                  (     0          1          0      )
                  (     0          0          1      )

 cart.    s( 1) = (  1.0000000 -0.0000000  0.0000000 )
                  ( -0.0000000  1.0000000  0.0000000 )
                  ( -0.0000000  0.0000000  1.0000000 )


      isym =  2     180 deg rotation - cart. axis [0,0,1]        

 cryst.   s( 2) = (     0          1         -1      )
                  (     1          0         -1      )
                  (     0          0         -1      )

 cart.    s( 2) = ( -1.0000000  0.0000000  0.0000000 )
                  (  0.0000000 -1.0000000  0.0000000 )
                  (  0.0000000 -0.0000000  1.0000000 )


      isym =  3     180 deg rotation - cart. axis [0,1,0]        

 cryst.   s( 3) = (     0         -1          1      )
                  (     0         -1          0      )
                  (     1         -1          0      )

 cart.    s( 3) = ( -1.0000000 -0.0000000 -0.0000000 )
                  (  0.0000000  1.0000000 -0.0000000 )
                  (  0.0000000  0.0000000 -1.0000000 )


      isym =  4     180 deg rotation - cart. axis [1,0,0]        

 cryst.   s( 4) = (    -1          0          0      )
                  (    -1          0          1      )
                  (    -1          1          0      )

 cart.    s( 4) = (  1.0000000  0.0000000 -0.0000000 )
                  ( -0.0000000 -1.0000000 -0.0000000 )
                  ( -0.0000000 -0.0000000 -1.0000000 )


      isym =  5     180 deg rotation - cart. axis [1,1,0]        

 cryst.   s( 5) = (    -1          0          1      )
                  (     0         -1          1      )
                  (     0          0          1      )

 cart.    s( 5) = ( -0.0000000  1.0000000 -0.0000000 )
                  (  1.0000000 -0.0000000 -0.0000000 )
                  (  0.0000000 -0.0000000 -1.0000000 )


      isym =  6     180 deg rotation - cart. axis [1,-1,0]       

 cryst.   s( 6) = (     0         -1          0      )
                  (    -1          0          0      )
                  (     0          0         -1      )

 cart.    s( 6) = (  0.0000000 -1.0000000 -0.0000000 )
                  ( -1.0000000  0.0000000 -0.0000000 )
                  ( -0.0000000  0.0000000 -1.0000000 )


      isym =  7      90 deg rotation - cart. axis [0,0,-1]       

 cryst.   s( 7) = (     0          1          0      )
                  (     0          1         -1      )
                  (    -1          1          0      )

 cart.    s( 7) = (  0.0000000  1.0000000  0.0000000 )
                  ( -1.0000000 -0.0000000  0.0000000 )
                  ( -0.0000000 -0.0000000  1.0000000 )


      isym =  8      90 deg rotation - cart. axis [0,0,1]        

 cryst.   s( 8) = (     1          0         -1      )
                  (     1          0          0      )
                  (     1         -1          0      )

 cart.    s( 8) = ( -0.0000000 -1.0000000  0.0000000 )
                  (  1.0000000  0.0000000  0.0000000 )
                  (  0.0000000  0.0000000  1.0000000 )


      isym =  9     180 deg rotation - cart. axis [1,0,1]        

 cryst.   s( 9) = (    -1          1          0      )
                  (     0          1          0      )
                  (     0          1         -1      )

 cart.    s( 9) = (  0.0000000  0.0000000  1.0000000 )
                  (  0.0000000 -1.0000000 -0.0000000 )
                  (  1.0000000 -0.0000000 -0.0000000 )


      isym = 10     180 deg rotation - cart. axis [-1,0,1]       

 cryst.   s(10) = (     0          0         -1      )
                  (     0         -1          0      )
                  (    -1          0          0      )

 cart.    s(10) = ( -0.0000000  0.0000000 -1.0000000 )
                  ( -0.0000000 -1.0000000  0.0000000 )
                  ( -1.0000000 -0.0000000  0.0000000 )


      isym = 11      90 deg rotation - cart. axis [0,1,0]        

 cryst.   s(11) = (     0          0          1      )
                  (    -1          0          1      )
                  (     0         -1          1      )

 cart.    s(11) = ( -0.0000000 -0.0000000  1.0000000 )
                  ( -0.0000000  1.0000000 -0.0000000 )
                  ( -1.0000000  0.0000000 -0.0000000 )


      isym = 12      90 deg rotation - cart. axis [0,-1,0]       

 cryst.   s(12) = (     1         -1          0      )
                  (     1          0         -1      )
                  (     1          0          0      )

 cart.    s(12) = (  0.0000000 -0.0000000 -1.0000000 )
                  (  0.0000000  1.0000000  0.0000000 )
                  (  1.0000000  0.0000000  0.0000000 )


      isym = 13     180 deg rotation - cart. axis [0,1,1]        

 cryst.   s(13) = (     1          0          0      )
                  (     1         -1          0      )
                  (     1          0         -1      )

 cart.    s(13) = ( -1.0000000  0.0000000 -0.0000000 )
                  (  0.0000000  0.0000000  1.0000000 )
                  (  0.0000000  1.0000000  0.0000000 )


      isym = 14     180 deg rotation - cart. axis [0,1,-1]       

 cryst.   s(14) = (    -1          0          0      )
                  (     0          0         -1      )
                  (     0         -1          0      )

 cart.    s(14) = ( -1.0000000 -0.0000000  0.0000000 )
                  (  0.0000000 -0.0000000 -1.0000000 )
                  (  0.0000000 -1.0000000 -0.0000000 )


      isym = 15      90 deg rotation - cart. axis [-1,0,0]       

 cryst.   s(15) = (     0         -1          1      )
                  (     0          0          1      )
                  (    -1          0          1      )

 cart.    s(15) = (  1.0000000 -0.0000000 -0.0000000 )
                  ( -0.0000000 -0.0000000  1.0000000 )
                  ( -0.0000000 -1.0000000  0.0000000 )


      isym = 16      90 deg rotation - cart. axis [1,0,0]        

 cryst.   s(16) = (     0          1         -1      )
                  (    -1          1          0      )
                  (     0          1          0      )

 cart.    s(16) = (  1.0000000  0.0000000  0.0000000 )
                  ( -0.0000000  0.0000000 -1.0000000 )
                  ( -0.0000000  1.0000000 -0.0000000 )


      isym = 17     120 deg rotation - cart. axis [-1,-1,-1]     

 cryst.   s(17) = (     0          0          1      )
                  (     1          0          0      )
                  (     0          1          0      )

 cart.    s(17) = (  0.0000000  1.0000000 -0.0000000 )
                  (  0.0000000 -0.0000000  1.0000000 )
                  (  1.0000000 -0.0000000  0.0000000 )


      isym = 18     120 deg rotation - cart. axis [-1,1,1]       

 cryst.   s(18) = (     1         -1          0      )
                  (     0         -1          1      )
                  (     0         -1          0      )

 cart.    s(18) = ( -0.0000000 -1.0000000 -0.0000000 )
                  ( -0.0000000  0.0000000  1.0000000 )
                  ( -1.0000000  0.0000000  0.0000000 )


      isym = 19     120 deg rotation - cart. axis [1,1,-1]       

 cryst.   s(19) = (    -1          1          0      )
                  (    -1          0          0      )
                  (    -1          0          1      )

 cart.    s(19) = ( -0.0000000  1.0000000  0.0000000 )
                  ( -0.0000000 -0.0000000 -1.0000000 )
                  ( -1.0000000 -0.0000000 -0.0000000 )


      isym = 20     120 deg rotation - cart. axis [1,-1,1]       

 cryst.   s(20) = (     0          0         -1      )
                  (     0          1         -1      )
                  (     1          0         -1      )

 cart.    s(20) = (  0.0000000 -1.0000000  0.0000000 )
                  (  0.0000000  0.0000000 -1.0000000 )
                  (  1.0000000  0.0000000 -0.0000000 )


      isym = 21     120 deg rotation - cart. axis [1,1,1]        

 cryst.   s(21) = (     0          1          0      )
                  (     0          0          1      )
                  (     1          0          0      )

 cart.    s(21) = ( -0.0000000  0.0000000  1.0000000 )
                  (  1.0000000  0.0000000 -0.0000000 )
                  (  0.0000000  1.0000000 -0.0000000 )


      isym = 22     120 deg rotation - cart. axis [-1,1,-1]      

 cryst.   s(22) = (    -1          0          1      )
                  (    -1          1          0      )
                  (    -1          0          0      )

 cart.    s(22) = (  0.0000000 -0.0000000  1.0000000 )
                  ( -1.0000000 -0.0000000 -0.0000000 )
                  ( -0.0000000 -1.0000000 -0.0000000 )


      isym = 23     120 deg rotation - cart. axis [1,-1,-1]      

 cryst.   s(23) = (     1          0         -1      )
                  (     0          0         -1      )
                  (     0          1         -1      )

 cart.    s(23) = (  0.0000000  0.0000000 -1.0000000 )
                  ( -1.0000000  0.0000000  0.0000000 )
                  ( -0.0000000  1.0000000  0.0000000 )


      isym = 24     120 deg rotation - cart. axis [-1,-1,1]      

 cryst.   s(24) = (     0         -1          0      )
                  (     1         -1          0      )
                  (     0         -1          1      )

 cart.    s(24) = ( -0.0000000 -0.0000000 -1.0000000 )
                  (  1.0000000 -0.0000000  0.0000000 )
                  (  0.0000000 -1.0000000  0.0000000 )


      isym = 25     inversion                                    

 cryst.   s(25) = (    -1          0          0      )
                  (     0         -1          0      )
                  (     0          0         -1      )

 cart.    s(25) = ( -1.0000000  0.0000000 -0.0000000 )
                  (  0.0000000 -1.0000000 -0.0000000 )
                  (  0.0000000 -0.0000000 -1.0000000 )


      isym = 26     inv. 180 deg rotation - cart. axis [0,0,1]   

 cryst.   s(26) = (     0         -1          1      )
                  (    -1          0          1      )
                  (     0          0          1      )

 cart.    s(26) = (  1.0000000 -0.0000000 -0.0000000 )
                  ( -0.0000000  1.0000000 -0.0000000 )
                  ( -0.0000000  0.0000000 -1.0000000 )


      isym = 27     inv. 180 deg rotation - cart. axis [0,1,0]   

 cryst.   s(27) = (     0          1         -1      )
                  (     0          1          0      )
                  (    -1          1          0      )

 cart.    s(27) = (  1.0000000  0.0000000  0.0000000 )
                  ( -0.0000000 -1.0000000  0.0000000 )
                  ( -0.0000000 -0.0000000  1.0000000 )


      isym = 28     inv. 180 deg rotation - cart. axis [1,0,0]   

 cryst.   s(28) = (     1          0          0      )
                  (     1          0         -1      )
                  (     1         -1          0      )

 cart.    s(28) = ( -1.0000000 -0.0000000  0.0000000 )
                  (  0.0000000  1.0000000  0.0000000 )
                  (  0.0000000  0.0000000  1.0000000 )


      isym = 29     inv. 180 deg rotation - cart. axis [1,1,0]   

 cryst.   s(29) = (     1          0         -1      )
                  (     0          1         -1      )
                  (     0          0         -1      )

 cart.    s(29) = (  0.0000000 -1.0000000  0.0000000 )
                  ( -1.0000000  0.0000000  0.0000000 )
                  ( -0.0000000  0.0000000  1.0000000 )


      isym = 30     inv. 180 deg rotation - cart. axis [1,-1,0]  

 cryst.   s(30) = (     0          1          0      )
                  (     1          0          0      )
                  (     0          0          1      )

 cart.    s(30) = ( -0.0000000  1.0000000  0.0000000 )
                  (  1.0000000 -0.0000000  0.0000000 )
                  (  0.0000000 -0.0000000  1.0000000 )


      isym = 31     inv.  90 deg rotation - cart. axis [0,0,-1]  

 cryst.   s(31) = (     0         -1          0      )
                  (     0         -1          1      )
                  (     1         -1          0      )

 cart.    s(31) = ( -0.0000000 -1.0000000 -0.0000000 )
                  (  1.0000000  0.0000000 -0.0000000 )
                  (  0.0000000  0.0000000 -1.0000000 )


      isym = 32     inv.  90 deg rotation - cart. axis [0,0,1]   

 cryst.   s(32) = (    -1          0          1      )
                  (    -1          0          0      )
                  (    -1          1          0      )

 cart.    s(32) = (  0.0000000  1.0000000 -0.0000000 )
                  ( -1.0000000 -0.0000000 -0.0000000 )
                  ( -0.0000000 -0.0000000 -1.0000000 )


      isym = 33     inv. 180 deg rotation - cart. axis [1,0,1]   

 cryst.   s(33) = (     1         -1          0      )
                  (     0         -1          0      )
                  (     0         -1          1      )

 cart.    s(33) = ( -0.0000000 -0.0000000 -1.0000000 )
                  ( -0.0000000  1.0000000  0.0000000 )
                  ( -1.0000000  0.0000000  0.0000000 )


      isym = 34     inv. 180 deg rotation - cart. axis [-1,0,1]  

 cryst.   s(34) = (     0          0          1      )
                  (     0          1          0      )
                  (     1          0          0      )

 cart.    s(34) = (  0.0000000 -0.0000000  1.0000000 )
                  (  0.0000000  1.0000000 -0.0000000 )
                  (  1.0000000  0.0000000 -0.0000000 )


      isym = 35     inv.  90 deg rotation - cart. axis [0,1,0]   

 cryst.   s(35) = (     0          0         -1      )
                  (     1          0         -1      )
                  (     0          1         -1      )

 cart.    s(35) = (  0.0000000  0.0000000 -1.0000000 )
                  (  0.0000000 -1.0000000  0.0000000 )
                  (  1.0000000 -0.0000000  0.0000000 )


      isym = 36     inv.  90 deg rotation - cart. axis [0,-1,0]  

 cryst.   s(36) = (    -1          1          0      )
                  (    -1          0          1      )
                  (    -1          0          0      )

 cart.    s(36) = ( -0.0000000  0.0000000  1.0000000 )
                  ( -0.0000000 -1.0000000 -0.0000000 )
                  ( -1.0000000 -0.0000000 -0.0000000 )


      isym = 37     inv. 180 deg rotation - cart. axis [0,1,1]   

 cryst.   s(37) = (    -1          0          0      )
                  (    -1          1          0      )
                  (    -1          0          1      )

 cart.    s(37) = (  1.0000000 -0.0000000  0.0000000 )
                  ( -0.0000000 -0.0000000 -1.0000000 )
                  ( -0.0000000 -1.0000000 -0.0000000 )


      isym = 38     inv. 180 deg rotation - cart. axis [0,1,-1]  

 cryst.   s(38) = (     1          0          0      )
                  (     0          0          1      )
                  (     0          1          0      )

 cart.    s(38) = (  1.0000000  0.0000000 -0.0000000 )
                  ( -0.0000000  0.0000000  1.0000000 )
                  ( -0.0000000  1.0000000  0.0000000 )


      isym = 39     inv.  90 deg rotation - cart. axis [-1,0,0]  

 cryst.   s(39) = (     0          1         -1      )
                  (     0          0         -1      )
                  (     1          0         -1      )

 cart.    s(39) = ( -1.0000000  0.0000000  0.0000000 )
                  (  0.0000000  0.0000000 -1.0000000 )
                  (  0.0000000  1.0000000 -0.0000000 )


      isym = 40     inv.  90 deg rotation - cart. axis [1,0,0]   

 cryst.   s(40) = (     0         -1          1      )
                  (     1         -1          0      )
                  (     0         -1          0      )

 cart.    s(40) = ( -1.0000000 -0.0000000 -0.0000000 )
                  (  0.0000000 -0.0000000  1.0000000 )
                  (  0.0000000 -1.0000000  0.0000000 )


      isym = 41     inv. 120 deg rotation - cart. axis [-1,-1,-1]

 cryst.   s(41) = (     0          0         -1      )
                  (    -1          0          0      )
                  (     0         -1          0      )

 cart.    s(41) = ( -0.0000000 -1.0000000  0.0000000 )
                  ( -0.0000000  0.0000000 -1.0000000 )
                  ( -1.0000000  0.0000000 -0.0000000 )


      isym = 42     inv. 120 deg rotation - cart. axis [-1,1,1]  

 cryst.   s(42) = (    -1          1          0      )
                  (     0          1         -1      )
                  (     0          1          0      )

 cart.    s(42) = (  0.0000000  1.0000000  0.0000000 )
                  (  0.0000000 -0.0000000 -1.0000000 )
                  (  1.0000000 -0.0000000 -0.0000000 )


      isym = 43     inv. 120 deg rotation - cart. axis [1,1,-1]  

 cryst.   s(43) = (     1         -1          0      )
                  (     1          0          0      )
                  (     1          0         -1      )

 cart.    s(43) = (  0.0000000 -1.0000000 -0.0000000 )
                  (  0.0000000  0.0000000  1.0000000 )
                  (  1.0000000  0.0000000  0.0000000 )


      isym = 44     inv. 120 deg rotation - cart. axis [1,-1,1]  

 cryst.   s(44) = (     0          0          1      )
                  (     0         -1          1      )
                  (    -1          0          1      )

 cart.    s(44) = ( -0.0000000  1.0000000 -0.0000000 )
                  ( -0.0000000 -0.0000000  1.0000000 )
                  ( -1.0000000 -0.0000000  0.0000000 )


      isym = 45     inv. 120 deg rotation - cart. axis [1,1,1]   

 cryst.   s(45) = (     0         -1          0      )
                  (     0          0         -1      )
                  (    -1          0          0      )

 cart.    s(45) = (  0.0000000 -0.0000000 -1.0000000 )
                  ( -1.0000000 -0.0000000  0.0000000 )
                  ( -0.0000000 -1.0000000  0.0000000 )


      isym = 46     inv. 120 deg rotation - cart. axis [-1,1,-1] 

 cryst.   s(46) = (     1          0         -1      )
                  (     1         -1          0      )
                  (     1          0          0      )

 cart.    s(46) = ( -0.0000000  0.0000000 -1.0000000 )
                  (  1.0000000  0.0000000  0.0000000 )
                  (  0.0000000  1.0000000  0.0000000 )


      isym = 47     inv. 120 deg rotation - cart. axis [1,-1,-1] 

 cryst.   s(47) = (    -1          0          1      )
                  (     0          0          1      )
                  (     0         -1          1      )

 cart.    s(47) = ( -0.0000000 -0.0000000  1.0000000 )
                  (  1.0000000 -0.0000000 -0.0000000 )
                  (  0.0000000 -1.0000000 -0.0000000 )


      isym = 48     inv. 120 deg rotation - cart. axis [-1,-1,1] 

 cryst.   s(48) = (     0          1          0      )
                  (    -1          1          0      )
                  (     0          1         -1      )

 cart.    s(48) = (  0.0000000  0.0000000  1.0000000 )
                  ( -1.0000000  0.0000000 -0.0000000 )
                  ( -0.0000000  1.0000000 -0.0000000 )


   Cartesian axes

     site n.     atom                  positions (alat units)
         1           Se  tau(   1) = (   0.0000000   0.0000000   0.0000000  )
         2           N   tau(   2) = (   0.3535534   0.3535534   1.0606602  )
         3           N   tau(   3) = (   0.3535534   1.0606602   1.0606602  )
         4           Cl  tau(   4) = (   1.0732467  -0.0000000  -0.0000000  )
         5           Cl  tau(   5) = (   0.7071068   0.3661399   0.0000000  )
         6           Cl  tau(   6) = (   0.0000000   0.0000000   1.0732467  )
         7           Cl  tau(   7) = (   0.7071068   0.0000000   1.0480737  )
         8           Cl  tau(   8) = (   0.7071068   1.0480737   0.0000000  )
         9           Cl  tau(   9) = (   0.3409669  -0.0000000  -0.0000000  )

   Crystallographic axes

     site n.     atom                  positions (cryst. coord.)
         1           Se  tau(   1) = (  0.0000000  0.0000000  0.0000000  )
         2           N   tau(   2) = (  0.7500000  0.7500000 -0.2500000  )
         3           N   tau(   3) = (  1.2500000  0.2500000  0.2500000  )
         4           Cl  tau(   4) = ( -0.7589000  0.7589000  0.7589000  )
         5           Cl  tau(   5) = ( -0.2411000  0.2411000  0.7589000  )
         6           Cl  tau(   6) = (  0.7589000  0.7589000 -0.7589000  )
         7           Cl  tau(   7) = (  0.2411000  1.2411000 -0.2411000  )
         8           Cl  tau(   8) = (  0.2411000 -0.2411000  1.2411000  )
         9           Cl  tau(   9) = ( -0.2411000  0.2411000  0.2411000  )

     number of k points=    29  Marzari-Vanderbilt smearing, width (Ry)=  0.0100
                       cart. coord. in units 2pi/alat
        k(    1) = (   0.0000000   0.0000000   0.0000000), wk =   0.0019531
        k(    2) = (   0.0883883   0.0883883  -0.0883883), wk =   0.0156250
        k(    3) = (   0.1767767   0.1767767  -0.1767767), wk =   0.0156250
        k(    4) = (   0.2651650   0.2651650  -0.2651650), wk =   0.0156250
        k(    5) = (  -0.3535534  -0.3535534   0.3535534), wk =   0.0078125
        k(    6) = (   0.1767767   0.0000000   0.0000000), wk =   0.0117188
        k(    7) = (   0.2651650   0.0883883  -0.0883883), wk =   0.0468750
        k(    8) = (   0.3535534   0.1767767  -0.1767767), wk =   0.0468750
        k(    9) = (  -0.2651650  -0.4419417   0.4419417), wk =   0.0468750
        k(   10) = (  -0.1767767  -0.3535534   0.3535534), wk =   0.0468750
        k(   11) = (  -0.0883883  -0.2651650   0.2651650), wk =   0.0468750
        k(   12) = (   0.0000000  -0.1767767   0.1767767), wk =   0.0234375
        k(   13) = (   0.3535534   0.0000000   0.0000000), wk =   0.0117188
        k(   14) = (   0.4419417   0.0883883  -0.0883883), wk =   0.0468750
        k(   15) = (  -0.1767767  -0.5303301   0.5303301), wk =   0.0468750
        k(   16) = (  -0.0883883  -0.4419417   0.4419417), wk =   0.0468750
        k(   17) = (   0.0000000  -0.3535534   0.3535534), wk =   0.0234375
        k(   18) = (   0.5303301  -0.0000000   0.0000000), wk =   0.0117188
        k(   19) = (  -0.0883883  -0.6187184   0.6187184), wk =   0.0468750
        k(   20) = (   0.0000000  -0.5303301   0.5303301), wk =   0.0234375
        k(   21) = (  -0.7071068   0.0000000   0.0000000), wk =   0.0058594
        k(   22) = (   0.3535534   0.1767767   0.0000000), wk =   0.0468750
        k(   23) = (  -0.2651650  -0.4419417   0.6187184), wk =   0.0937500
        k(   24) = (  -0.1767767  -0.3535534   0.5303301), wk =   0.0468750
        k(   25) = (  -0.1767767  -0.5303301   0.7071068), wk =   0.0468750
        k(   26) = (  -0.0883883  -0.4419417   0.6187184), wk =   0.0937500
        k(   27) = (   0.0000000  -0.3535534   0.5303301), wk =   0.0468750
        k(   28) = (  -0.7071068   0.1767767  -0.0000000), wk =   0.0234375
        k(   29) = (  -0.7071068   0.3535534   0.0000000), wk =   0.0117188

                       cryst. coord.
        k(    1) = (   0.0000000   0.0000000   0.0000000), wk =   0.0019531
        k(    2) = (   0.0000000   0.0000000   0.1250000), wk =   0.0156250
        k(    3) = (   0.0000000   0.0000000   0.2500000), wk =   0.0156250
        k(    4) = (  -0.0000000  -0.0000000   0.3750000), wk =   0.0156250
        k(    5) = (  -0.0000000  -0.0000000  -0.5000000), wk =   0.0078125
        k(    6) = (   0.0000000   0.1250000   0.1250000), wk =   0.0117188
        k(    7) = (   0.0000000   0.1250000   0.2500000), wk =   0.0468750
        k(    8) = (   0.0000000   0.1250000   0.3750000), wk =   0.0468750
        k(    9) = (  -0.0000000   0.1250000  -0.5000000), wk =   0.0468750
        k(   10) = (  -0.0000000   0.1250000  -0.3750000), wk =   0.0468750
        k(   11) = (   0.0000000   0.1250000  -0.2500000), wk =   0.0468750
        k(   12) = (  -0.0000000   0.1250000  -0.1250000), wk =   0.0234375
        k(   13) = (   0.0000000   0.2500000   0.2500000), wk =   0.0117188
        k(   14) = (   0.0000000   0.2500000   0.3750000), wk =   0.0468750
        k(   15) = (   0.0000000   0.2500000  -0.5000000), wk =   0.0468750
        k(   16) = (  -0.0000000   0.2500000  -0.3750000), wk =   0.0468750
        k(   17) = (  -0.0000000   0.2500000  -0.2500000), wk =   0.0234375
        k(   18) = (   0.0000000   0.3750000   0.3750000), wk =   0.0117188
        k(   19) = (  -0.0000000   0.3750000  -0.5000000), wk =   0.0468750
        k(   20) = (   0.0000000   0.3750000  -0.3750000), wk =   0.0234375
        k(   21) = (   0.0000000  -0.5000000  -0.5000000), wk =   0.0058594
        k(   22) = (   0.1250000   0.2500000   0.3750000), wk =   0.0468750
        k(   23) = (   0.1250000   0.2500000  -0.5000000), wk =   0.0937500
        k(   24) = (   0.1250000   0.2500000  -0.3750000), wk =   0.0468750
        k(   25) = (   0.1250000   0.3750000  -0.5000000), wk =   0.0468750
        k(   26) = (   0.1250000   0.3750000  -0.3750000), wk =   0.0937500
        k(   27) = (   0.1250000   0.3750000  -0.2500000), wk =   0.0468750
        k(   28) = (   0.1250000  -0.5000000  -0.3750000), wk =   0.0234375
        k(   29) = (   0.2500000  -0.5000000  -0.2500000), wk =   0.0117188

     Dense  grid:   296685 G-vectors     FFT dimensions: (  96,  96,  96)

     Smooth grid:   104579 G-vectors     FFT dimensions: (  72,  72,  72)

     Dynamical RAM for                 wfc:       6.99 MB

     Dynamical RAM for     wfc (w. buffer):     412.43 MB

     Dynamical RAM for           str. fact:      13.58 MB

     Dynamical RAM for           local pot:       0.00 MB

     Dynamical RAM for          nlocal pot:      28.36 MB

     Dynamical RAM for                qrad:       5.27 MB

     Dynamical RAM for          rho,v,vnew:      67.66 MB

     Dynamical RAM for               rhoin:      22.55 MB

     Dynamical RAM for            rho*nmix:     144.87 MB

     Dynamical RAM for           G-vectors:      17.77 MB

     Dynamical RAM for          h,s,v(r/c):       0.22 MB

     Dynamical RAM for          <psi|beta>:       0.08 MB

     Dynamical RAM for                 psi:      13.98 MB

     Dynamical RAM for                hpsi:      13.98 MB

     Dynamical RAM for                spsi:      13.98 MB

     Dynamical RAM for      wfcinit/wfcrot:      14.01 MB

     Dynamical RAM for           addusdens:     873.72 MB

     Dynamical RAM for          addusforce:     919.04 MB

     Dynamical RAM for         addusstress:     916.73 MB

     Estimated static dynamical RAM per process >     626.24 MB

     Estimated max dynamical RAM per process >       1.65 GB

     Atomic positions and unit cell read from directory:
     ./out/aiida.save/
 
     Generating pointlists ...
     new r_m :   0.1406 (alat units)  1.8722 (a.u.) for type    1
     new r_m :   0.2063 (alat units)  2.7463 (a.u.) for type    2
     new r_m :   0.1406 (alat units)  1.8722 (a.u.) for type    3

     The initial density is read from file :
     ./out/aiida.save/charge-density


     negative rho (up, down):  4.624E-02 4.490E-02
     Starting wfcs from file

     total cpu time spent up to now is        3.2 secs

     per-process dynamical memory:   570.3 Mb

     Self-consistent Calculation
[tb_dev] Currently allocated     6.87E-05 Mbytes, locked:    0 /   2
[tb_pin] Currently allocated     0.00E+00 Mbytes, locked:    0 /   0

     iteration #  1     ecut=    60.00 Ry     beta= 0.10
     Davidson diagonalization with overlap

---- Real-time Memory Report at c_bands before calling an iterative solver
           703 MiB given to the printing process from OS
           577 MiB allocation reported by mallinfo(arena+hblkhd)
         53758 MiB available memory on the node where the printing process lives
     GPU memory used/free/total (MiB): 938 / 15342 / 16280
------------------
     ethr =  1.00E-05,  avg # of iterations =  1.5

     Threshold (ethr) on eigenvalues was too large:
     Diagonalizing with lowered threshold

     Davidson diagonalization with overlap

---- Real-time Memory Report at c_bands before calling an iterative solver
          1463 MiB given to the printing process from OS
          1284 MiB allocation reported by mallinfo(arena+hblkhd)
         52184 MiB available memory on the node where the printing process lives
     GPU memory used/free/total (MiB): 2932 / 13348 / 16280
------------------
     ethr =  4.76E-08,  avg # of iterations =  1.5

     negative rho (up, down):  4.624E-02 4.491E-02

     total cpu time spent up to now is       10.4 secs

     total energy              =    -282.00419695 Ry
     estimated scf accuracy    <       0.00002882 Ry

     total magnetization       =     6.72 Bohr mag/cell
     absolute magnetization    =     6.74 Bohr mag/cell
[tb_dev] Currently allocated     7.31E+00 Mbytes, locked:    0 /   9
[tb_pin] Currently allocated     0.00E+00 Mbytes, locked:    0 /   0

     iteration #  2     ecut=    60.00 Ry     beta= 0.10
     Davidson diagonalization with overlap

---- Real-time Memory Report at c_bands before calling an iterative solver
          1548 MiB given to the printing process from OS
          1324 MiB allocation reported by mallinfo(arena+hblkhd)
         52136 MiB available memory on the node where the printing process lives
     GPU memory used/free/total (MiB): 3072 / 13208 / 16280
------------------
     ethr =  4.97E-08,  avg # of iterations =  1.0

     negative rho (up, down):  4.623E-02 4.491E-02

     total cpu time spent up to now is       13.3 secs

     total energy              =    -282.00420154 Ry
     estimated scf accuracy    <       0.00000814 Ry

     total magnetization       =     6.70 Bohr mag/cell
     absolute magnetization    =     6.72 Bohr mag/cell
[tb_dev] Currently allocated     7.31E+00 Mbytes, locked:    0 /   9
[tb_pin] Currently allocated     0.00E+00 Mbytes, locked:    0 /   0

     iteration #  3     ecut=    60.00 Ry     beta= 0.10
     Davidson diagonalization with overlap

---- Real-time Memory Report at c_bands before calling an iterative solver
          1558 MiB given to the printing process from OS
          1333 MiB allocation reported by mallinfo(arena+hblkhd)
         52127 MiB available memory on the node where the printing process lives
     GPU memory used/free/total (MiB): 3072 / 13208 / 16280
------------------
     ethr =  1.40E-08,  avg # of iterations =  1.0

     negative rho (up, down):  4.622E-02 4.492E-02

     total cpu time spent up to now is       16.2 secs

     total energy              =    -282.00420810 Ry
     estimated scf accuracy    <       0.00000633 Ry

     total magnetization       =     6.69 Bohr mag/cell
     absolute magnetization    =     6.71 Bohr mag/cell
[tb_dev] Currently allocated     7.31E+00 Mbytes, locked:    0 /   9
[tb_pin] Currently allocated     0.00E+00 Mbytes, locked:    0 /   0

     iteration #  4     ecut=    60.00 Ry     beta= 0.10
     Davidson diagonalization with overlap

---- Real-time Memory Report at c_bands before calling an iterative solver
          1565 MiB given to the printing process from OS
          1340 MiB allocation reported by mallinfo(arena+hblkhd)
         52121 MiB available memory on the node where the printing process lives
     GPU memory used/free/total (MiB): 3072 / 13208 / 16280
------------------
     ethr =  1.09E-08,  avg # of iterations =  1.1

     negative rho (up, down):  4.621E-02 4.493E-02

     total cpu time spent up to now is       19.1 secs

     total energy              =    -282.00421789 Ry
     estimated scf accuracy    <       0.00000580 Ry

     total magnetization       =     6.67 Bohr mag/cell
     absolute magnetization    =     6.69 Bohr mag/cell
[tb_dev] Currently allocated     7.31E+00 Mbytes, locked:    0 /   9
[tb_pin] Currently allocated     0.00E+00 Mbytes, locked:    0 /   0

     iteration #  5     ecut=    60.00 Ry     beta= 0.10
     Davidson diagonalization with overlap

---- Real-time Memory Report at c_bands before calling an iterative solver
          1568 MiB given to the printing process from OS
          1343 MiB allocation reported by mallinfo(arena+hblkhd)
         52120 MiB available memory on the node where the printing process lives
     GPU memory used/free/total (MiB): 3072 / 13208 / 16280
------------------
     ethr =  1.00E-08,  avg # of iterations =  1.5

     negative rho (up, down):  4.622E-02 4.492E-02

     total cpu time spent up to now is       22.2 secs

     total energy              =    -282.00421222 Ry
     estimated scf accuracy    <       0.00000578 Ry

     total magnetization       =     6.65 Bohr mag/cell
     absolute magnetization    =     6.67 Bohr mag/cell
[tb_dev] Currently allocated     7.31E+00 Mbytes, locked:    0 /   9
[tb_pin] Currently allocated     0.00E+00 Mbytes, locked:    0 /   0

     iteration #  6     ecut=    60.00 Ry     beta= 0.10
     Davidson diagonalization with overlap

---- Real-time Memory Report at c_bands before calling an iterative solver
          1578 MiB given to the printing process from OS
          1353 MiB allocation reported by mallinfo(arena+hblkhd)
         52111 MiB available memory on the node where the printing process lives
     GPU memory used/free/total (MiB): 3072 / 13208 / 16280
------------------
     ethr =  9.97E-09,  avg # of iterations =  1.0

     negative rho (up, down):  4.627E-02 4.488E-02

     total cpu time spent up to now is       25.2 secs

     total energy              =    -282.00415191 Ry
     estimated scf accuracy    <       0.00000558 Ry

     total magnetization       =     6.67 Bohr mag/cell
     absolute magnetization    =     6.69 Bohr mag/cell
[tb_dev] Currently allocated     7.31E+00 Mbytes, locked:    0 /   9
[tb_pin] Currently allocated     0.00E+00 Mbytes, locked:    0 /   0

     iteration #  7     ecut=    60.00 Ry     beta= 0.10
     Davidson diagonalization with overlap

---- Real-time Memory Report at c_bands before calling an iterative solver
          1584 MiB given to the printing process from OS
          1359 MiB allocation reported by mallinfo(arena+hblkhd)
         52104 MiB available memory on the node where the printing process lives
     GPU memory used/free/total (MiB): 3072 / 13208 / 16280
------------------
     ethr =  9.63E-09,  avg # of iterations =  2.5

     negative rho (up, down):  4.630E-02 4.485E-02

     total cpu time spent up to now is       29.0 secs

     total energy              =    -282.00414575 Ry
     estimated scf accuracy    <       0.00000527 Ry

     total magnetization       =     6.76 Bohr mag/cell
     absolute magnetization    =     6.78 Bohr mag/cell
[tb_dev] Currently allocated     7.31E+00 Mbytes, locked:    0 /   9
[tb_pin] Currently allocated     0.00E+00 Mbytes, locked:    0 /   0

     iteration #  8     ecut=    60.00 Ry     beta= 0.10
     Davidson diagonalization with overlap

---- Real-time Memory Report at c_bands before calling an iterative solver
          1591 MiB given to the printing process from OS
          1365 MiB allocation reported by mallinfo(arena+hblkhd)
         52097 MiB available memory on the node where the printing process lives
     GPU memory used/free/total (MiB): 3072 / 13208 / 16280
------------------
     ethr =  9.09E-09,  avg # of iterations =  2.0

     negative rho (up, down):  4.651E-02 4.465E-02

     total cpu time spent up to now is       32.7 secs

     total energy              =    -282.00359926 Ry
     estimated scf accuracy    <       0.00000557 Ry

     total magnetization       =     6.81 Bohr mag/cell
     absolute magnetization    =     6.83 Bohr mag/cell
[tb_dev] Currently allocated     7.31E+00 Mbytes, locked:    0 /   9
[tb_pin] Currently allocated     0.00E+00 Mbytes, locked:    0 /   0

     iteration #  9     ecut=    60.00 Ry     beta= 0.10
     Davidson diagonalization with overlap

---- Real-time Memory Report at c_bands before calling an iterative solver
          1594 MiB given to the printing process from OS
          1369 MiB allocation reported by mallinfo(arena+hblkhd)
         52095 MiB available memory on the node where the printing process lives
     GPU memory used/free/total (MiB): 3072 / 13208 / 16280
------------------
     ethr =  9.09E-09,  avg # of iterations =  5.4

     negative rho (up, down):  4.608E-02 4.506E-02

     total cpu time spent up to now is       37.8 secs

     total energy              =    -282.00276550 Ry
     estimated scf accuracy    <       0.00001478 Ry

     total magnetization       =     7.16 Bohr mag/cell
     absolute magnetization    =     7.19 Bohr mag/cell
[tb_dev] Currently allocated     7.31E+00 Mbytes, locked:    0 /   9
[tb_pin] Currently allocated     0.00E+00 Mbytes, locked:    0 /   0

     iteration # 10     ecut=    60.00 Ry     beta= 0.10
     Davidson diagonalization with overlap

---- Real-time Memory Report at c_bands before calling an iterative solver
          1603 MiB given to the printing process from OS
          1378 MiB allocation reported by mallinfo(arena+hblkhd)
         52087 MiB available memory on the node where the printing process lives
     GPU memory used/free/total (MiB): 3072 / 13208 / 16280
------------------
     ethr =  9.09E-09,  avg # of iterations =  6.6

     negative rho (up, down):  4.608E-02 4.505E-02

     total cpu time spent up to now is       43.9 secs

     total energy              =    -282.00433093 Ry
     estimated scf accuracy    <       0.00005037 Ry

     total magnetization       =     6.43 Bohr mag/cell
     absolute magnetization    =     6.45 Bohr mag/cell
[tb_dev] Currently allocated     7.31E+00 Mbytes, locked:    0 /   9
[tb_pin] Currently allocated     0.00E+00 Mbytes, locked:    0 /   0

     iteration # 11     ecut=    60.00 Ry     beta= 0.10
     Davidson diagonalization with overlap

---- Real-time Memory Report at c_bands before calling an iterative solver
          1603 MiB given to the printing process from OS
          1378 MiB allocation reported by mallinfo(arena+hblkhd)
         52088 MiB available memory on the node where the printing process lives
     GPU memory used/free/total (MiB): 3072 / 13208 / 16280
------------------
     ethr =  9.09E-09,  avg # of iterations =  1.2

     negative rho (up, down):  4.590E-02 4.523E-02

     total cpu time spent up to now is       46.9 secs

     total energy              =    -282.00422007 Ry
     estimated scf accuracy    <       0.00004853 Ry

     total magnetization       =     6.43 Bohr mag/cell
     absolute magnetization    =     6.44 Bohr mag/cell
[tb_dev] Currently allocated     7.31E+00 Mbytes, locked:    0 /   9
[tb_pin] Currently allocated     0.00E+00 Mbytes, locked:    0 /   0

     iteration # 12     ecut=    60.00 Ry     beta= 0.10
     Davidson diagonalization with overlap

---- Real-time Memory Report at c_bands before calling an iterative solver
          1610 MiB given to the printing process from OS
          1378 MiB allocation reported by mallinfo(arena+hblkhd)
         52086 MiB available memory on the node where the printing process lives
     GPU memory used/free/total (MiB): 3072 / 13208 / 16280
------------------
     ethr =  9.09E-09,  avg # of iterations =  4.5

     negative rho (up, down):  4.620E-02 4.494E-02

     total cpu time spent up to now is       51.6 secs

     total energy              =    -282.00334544 Ry
     estimated scf accuracy    <       0.00009935 Ry

     total magnetization       =     6.09 Bohr mag/cell
     absolute magnetization    =     6.10 Bohr mag/cell
[tb_dev] Currently allocated     7.31E+00 Mbytes, locked:    0 /   9
[tb_pin] Currently allocated     0.00E+00 Mbytes, locked:    0 /   0

     iteration # 13     ecut=    60.00 Ry     beta= 0.10
     Davidson diagonalization with overlap

---- Real-time Memory Report at c_bands before calling an iterative solver
          1610 MiB given to the printing process from OS
          1378 MiB allocation reported by mallinfo(arena+hblkhd)
         52086 MiB available memory on the node where the printing process lives
     GPU memory used/free/total (MiB): 3072 / 13208 / 16280
------------------
     ethr =  9.09E-09,  avg # of iterations =  6.2

     negative rho (up, down):  4.639E-02 4.476E-02

     total cpu time spent up to now is       57.3 secs

     total energy              =    -282.00378357 Ry
     estimated scf accuracy    <       0.00004303 Ry

     total magnetization       =     6.66 Bohr mag/cell
     absolute magnetization    =     6.67 Bohr mag/cell
[tb_dev] Currently allocated     7.31E+00 Mbytes, locked:    0 /   9
[tb_pin] Currently allocated     0.00E+00 Mbytes, locked:    0 /   0

     iteration # 14     ecut=    60.00 Ry     beta= 0.10
     Davidson diagonalization with overlap

---- Real-time Memory Report at c_bands before calling an iterative solver
          1610 MiB given to the printing process from OS
          1378 MiB allocation reported by mallinfo(arena+hblkhd)
         52087 MiB available memory on the node where the printing process lives
     GPU memory used/free/total (MiB): 3072 / 13208 / 16280
------------------
     ethr =  9.09E-09,  avg # of iterations =  4.9

     negative rho (up, down):  4.651E-02 4.464E-02

     total cpu time spent up to now is       62.2 secs

     total energy              =    -282.00385673 Ry
     estimated scf accuracy    <       0.00003260 Ry

     total magnetization       =     6.97 Bohr mag/cell
     absolute magnetization    =     7.00 Bohr mag/cell
[tb_dev] Currently allocated     7.31E+00 Mbytes, locked:    0 /   9
[tb_pin] Currently allocated     0.00E+00 Mbytes, locked:    0 /   0

     iteration # 15     ecut=    60.00 Ry     beta= 0.10
     Davidson diagonalization with overlap

---- Real-time Memory Report at c_bands before calling an iterative solver
          1610 MiB given to the printing process from OS
          1378 MiB allocation reported by mallinfo(arena+hblkhd)
         52087 MiB available memory on the node where the printing process lives
     GPU memory used/free/total (MiB): 3072 / 13208 / 16280
------------------
     ethr =  9.09E-09,  avg # of iterations =  4.4

     negative rho (up, down):  4.648E-02 4.467E-02

     total cpu time spent up to now is       67.0 secs

     total energy              =    -282.00401063 Ry
     estimated scf accuracy    <       0.00005126 Ry

     total magnetization       =     7.18 Bohr mag/cell
     absolute magnetization    =     7.21 Bohr mag/cell
[tb_dev] Currently allocated     7.31E+00 Mbytes, locked:    0 /   9
[tb_pin] Currently allocated     0.00E+00 Mbytes, locked:    0 /   0

     iteration # 16     ecut=    60.00 Ry     beta= 0.10
     Davidson diagonalization with overlap

---- Real-time Memory Report at c_bands before calling an iterative solver
          1610 MiB given to the printing process from OS
          1378 MiB allocation reported by mallinfo(arena+hblkhd)
         52088 MiB available memory on the node where the printing process lives
     GPU memory used/free/total (MiB): 3072 / 13208 / 16280
------------------
     ethr =  9.09E-09,  avg # of iterations =  1.6

     negative rho (up, down):  4.651E-02 4.464E-02

     total cpu time spent up to now is       70.2 secs

     total energy              =    -282.00398171 Ry
     estimated scf accuracy    <       0.00004333 Ry

     total magnetization       =     7.13 Bohr mag/cell
     absolute magnetization    =     7.16 Bohr mag/cell
[tb_dev] Currently allocated     7.31E+00 Mbytes, locked:    0 /   9
[tb_pin] Currently allocated     0.00E+00 Mbytes, locked:    0 /   0

     iteration # 17     ecut=    60.00 Ry     beta= 0.10
     Davidson diagonalization with overlap

---- Real-time Memory Report at c_bands before calling an iterative solver
          1610 MiB given to the printing process from OS
          1378 MiB allocation reported by mallinfo(arena+hblkhd)
         52088 MiB available memory on the node where the printing process lives
     GPU memory used/free/total (MiB): 3072 / 13208 / 16280
------------------
     ethr =  9.09E-09,  avg # of iterations =  2.0

     negative rho (up, down):  4.624E-02 4.490E-02

     total cpu time spent up to now is       73.6 secs

     total energy              =    -282.00358429 Ry
     estimated scf accuracy    <       0.00005156 Ry

     total magnetization       =     7.18 Bohr mag/cell
     absolute magnetization    =     7.21 Bohr mag/cell
[tb_dev] Currently allocated     7.31E+00 Mbytes, locked:    0 /   9
[tb_pin] Currently allocated     0.00E+00 Mbytes, locked:    0 /   0

     iteration # 18     ecut=    60.00 Ry     beta= 0.10
     Davidson diagonalization with overlap

---- Real-time Memory Report at c_bands before calling an iterative solver
          1610 MiB given to the printing process from OS
          1378 MiB allocation reported by mallinfo(arena+hblkhd)
         52089 MiB available memory on the node where the printing process lives
     GPU memory used/free/total (MiB): 3072 / 13208 / 16280
------------------
     ethr =  9.09E-09,  avg # of iterations =  5.9

     negative rho (up, down):  4.654E-02 4.461E-02

     total cpu time spent up to now is       79.0 secs

     total energy              =    -282.00319148 Ry
     estimated scf accuracy    <       0.00003059 Ry

     total magnetization       =     6.72 Bohr mag/cell
     absolute magnetization    =     6.74 Bohr mag/cell
[tb_dev] Currently allocated     7.31E+00 Mbytes, locked:    0 /   9
[tb_pin] Currently allocated     0.00E+00 Mbytes, locked:    0 /   0

     iteration # 19     ecut=    60.00 Ry     beta= 0.10
     Davidson diagonalization with overlap

---- Real-time Memory Report at c_bands before calling an iterative solver
          1610 MiB given to the printing process from OS
          1378 MiB allocation reported by mallinfo(arena+hblkhd)
         52090 MiB available memory on the node where the printing process lives
     GPU memory used/free/total (MiB): 3072 / 13208 / 16280
------------------
     ethr =  9.09E-09,  avg # of iterations =  5.8

     negative rho (up, down):  4.639E-02 4.476E-02

     total cpu time spent up to now is       84.5 secs

     total energy              =    -282.00390725 Ry
     estimated scf accuracy    <       0.00006380 Ry

     total magnetization       =     7.22 Bohr mag/cell
     absolute magnetization    =     7.25 Bohr mag/cell
[tb_dev] Currently allocated     7.31E+00 Mbytes, locked:    0 /   9
[tb_pin] Currently allocated     0.00E+00 Mbytes, locked:    0 /   0

     iteration # 20     ecut=    60.00 Ry     beta= 0.10
     Davidson diagonalization with overlap

---- Real-time Memory Report at c_bands before calling an iterative solver
          1610 MiB given to the printing process from OS
          1378 MiB allocation reported by mallinfo(arena+hblkhd)
         52089 MiB available memory on the node where the printing process lives
     GPU memory used/free/total (MiB): 3072 / 13208 / 16280
------------------
     ethr =  9.09E-09,  avg # of iterations =  4.5

     negative rho (up, down):  4.665E-02 4.451E-02

     total cpu time spent up to now is       89.4 secs

     total energy              =    -282.00327065 Ry
     estimated scf accuracy    <       0.00003233 Ry

     total magnetization       =     6.97 Bohr mag/cell
     absolute magnetization    =     6.99 Bohr mag/cell
[tb_dev] Currently allocated     7.31E+00 Mbytes, locked:    0 /   9
[tb_pin] Currently allocated     0.00E+00 Mbytes, locked:    0 /   0

     iteration # 21     ecut=    60.00 Ry     beta= 0.10
     Davidson diagonalization with overlap

---- Real-time Memory Report at c_bands before calling an iterative solver
          1610 MiB given to the printing process from OS
          1378 MiB allocation reported by mallinfo(arena+hblkhd)
         52090 MiB available memory on the node where the printing process lives
     GPU memory used/free/total (MiB): 3072 / 13208 / 16280
------------------
     ethr =  9.09E-09,  avg # of iterations =  5.7

     negative rho (up, down):  4.616E-02 4.498E-02

     total cpu time spent up to now is       94.8 secs

     total energy              =    -282.00236040 Ry
     estimated scf accuracy    <       0.00012602 Ry

     total magnetization       =     7.38 Bohr mag/cell
     absolute magnetization    =     7.41 Bohr mag/cell
[tb_dev] Currently allocated     7.31E+00 Mbytes, locked:    0 /   9
[tb_pin] Currently allocated     0.00E+00 Mbytes, locked:    0 /   0

     iteration # 22     ecut=    60.00 Ry     beta= 0.10
     Davidson diagonalization with overlap

---- Real-time Memory Report at c_bands before calling an iterative solver
          1610 MiB given to the printing process from OS
          1378 MiB allocation reported by mallinfo(arena+hblkhd)
         52091 MiB available memory on the node where the printing process lives
     GPU memory used/free/total (MiB): 3072 / 13208 / 16280
------------------
     ethr =  9.09E-09,  avg # of iterations =  6.8

     negative rho (up, down):  4.620E-02 4.494E-02

     total cpu time spent up to now is      100.8 secs

     total energy              =    -282.00422327 Ry
     estimated scf accuracy    <       0.00003985 Ry

     total magnetization       =     6.57 Bohr mag/cell
     absolute magnetization    =     6.58 Bohr mag/cell
[tb_dev] Currently allocated     7.31E+00 Mbytes, locked:    0 /   9
[tb_pin] Currently allocated     0.00E+00 Mbytes, locked:    0 /   0

     iteration # 23     ecut=    60.00 Ry     beta= 0.10
     Davidson diagonalization with overlap

---- Real-time Memory Report at c_bands before calling an iterative solver
          1610 MiB given to the printing process from OS
          1378 MiB allocation reported by mallinfo(arena+hblkhd)
         52091 MiB available memory on the node where the printing process lives
     GPU memory used/free/total (MiB): 3072 / 13208 / 16280
------------------
     ethr =  9.09E-09,  avg # of iterations =  2.4

     negative rho (up, down):  4.626E-02 4.489E-02

     total cpu time spent up to now is      104.4 secs

     total energy              =    -282.00416265 Ry
     estimated scf accuracy    <       0.00003568 Ry

     total magnetization       =     6.63 Bohr mag/cell
     absolute magnetization    =     6.65 Bohr mag/cell
[tb_dev] Currently allocated     7.31E+00 Mbytes, locked:    0 /   9
[tb_pin] Currently allocated     0.00E+00 Mbytes, locked:    0 /   0

     iteration # 24     ecut=    60.00 Ry     beta= 0.10
     Davidson diagonalization with overlap

---- Real-time Memory Report at c_bands before calling an iterative solver
          1610 MiB given to the printing process from OS
          1378 MiB allocation reported by mallinfo(arena+hblkhd)
         52091 MiB available memory on the node where the printing process lives
     GPU memory used/free/total (MiB): 3072 / 13208 / 16280
------------------
     ethr =  9.09E-09,  avg # of iterations =  2.7

     negative rho (up, down):  4.619E-02 4.495E-02

     total cpu time spent up to now is      108.3 secs

     total energy              =    -282.00420550 Ry
     estimated scf accuracy    <       0.00003067 Ry

     total magnetization       =     6.74 Bohr mag/cell
     absolute magnetization    =     6.76 Bohr mag/cell
[tb_dev] Currently allocated     7.31E+00 Mbytes, locked:    0 /   9
[tb_pin] Currently allocated     0.00E+00 Mbytes, locked:    0 /   0

     iteration # 25     ecut=    60.00 Ry     beta= 0.10
     Davidson diagonalization with overlap

---- Real-time Memory Report at c_bands before calling an iterative solver
          1610 MiB given to the printing process from OS
          1378 MiB allocation reported by mallinfo(arena+hblkhd)
         52091 MiB available memory on the node where the printing process lives
     GPU memory used/free/total (MiB): 3072 / 13208 / 16280
------------------
     ethr =  9.09E-09,  avg # of iterations =  2.9

     negative rho (up, down):  4.622E-02 4.492E-02

     total cpu time spent up to now is      112.4 secs

     total energy              =    -282.00421940 Ry
     estimated scf accuracy    <       0.00003421 Ry

     total magnetization       =     6.63 Bohr mag/cell
     absolute magnetization    =     6.65 Bohr mag/cell
[tb_dev] Currently allocated     7.31E+00 Mbytes, locked:    0 /   9
[tb_pin] Currently allocated     0.00E+00 Mbytes, locked:    0 /   0

     iteration # 26     ecut=    60.00 Ry     beta= 0.10
     Davidson diagonalization with overlap

---- Real-time Memory Report at c_bands before calling an iterative solver
          1610 MiB given to the printing process from OS
          1378 MiB allocation reported by mallinfo(arena+hblkhd)
         52092 MiB available memory on the node where the printing process lives
     GPU memory used/free/total (MiB): 3072 / 13208 / 16280
------------------
     ethr =  9.09E-09,  avg # of iterations =  1.5

     negative rho (up, down):  4.592E-02 4.521E-02

     total cpu time spent up to now is      116.0 secs

     total energy              =    -282.00366794 Ry
     estimated scf accuracy    <       0.00003572 Ry

     total magnetization       =     6.67 Bohr mag/cell
     absolute magnetization    =     6.69 Bohr mag/cell
[tb_dev] Currently allocated     7.31E+00 Mbytes, locked:    0 /   9
[tb_pin] Currently allocated     0.00E+00 Mbytes, locked:    0 /   0

     iteration # 27     ecut=    60.00 Ry     beta= 0.10
     Davidson diagonalization with overlap

---- Real-time Memory Report at c_bands before calling an iterative solver
          1610 MiB given to the printing process from OS
          1378 MiB allocation reported by mallinfo(arena+hblkhd)
         52090 MiB available memory on the node where the printing process lives
     GPU memory used/free/total (MiB): 3072 / 13208 / 16280
------------------
     ethr =  9.09E-09,  avg # of iterations =  5.9

     negative rho (up, down):  4.584E-02 4.529E-02

     total cpu time spent up to now is      121.6 secs

     total energy              =    -282.00456486 Ry
     estimated scf accuracy    <       0.00010059 Ry

     total magnetization       =     6.11 Bohr mag/cell
     absolute magnetization    =     6.12 Bohr mag/cell
[tb_dev] Currently allocated     7.31E+00 Mbytes, locked:    0 /   9
[tb_pin] Currently allocated     0.00E+00 Mbytes, locked:    0 /   0

     iteration # 28     ecut=    60.00 Ry     beta= 0.10
     Davidson diagonalization with overlap

---- Real-time Memory Report at c_bands before calling an iterative solver
          1610 MiB given to the printing process from OS
          1378 MiB allocation reported by mallinfo(arena+hblkhd)
         52089 MiB available memory on the node where the printing process lives
     GPU memory used/free/total (MiB): 3072 / 13208 / 16280
------------------
     ethr =  9.09E-09,  avg # of iterations =  3.5

     negative rho (up, down):  4.580E-02 4.533E-02

     total cpu time spent up to now is      125.8 secs

     total energy              =    -282.00467338 Ry
     estimated scf accuracy    <       0.00013811 Ry

     total magnetization       =     5.97 Bohr mag/cell
     absolute magnetization    =     5.97 Bohr mag/cell
[tb_dev] Currently allocated     7.31E+00 Mbytes, locked:    0 /   9
[tb_pin] Currently allocated     0.00E+00 Mbytes, locked:    0 /   0

     iteration # 29     ecut=    60.00 Ry     beta= 0.10
     Davidson diagonalization with overlap

---- Real-time Memory Report at c_bands before calling an iterative solver
          1610 MiB given to the printing process from OS
          1378 MiB allocation reported by mallinfo(arena+hblkhd)
         52091 MiB available memory on the node where the printing process lives
     GPU memory used/free/total (MiB): 3072 / 13208 / 16280
------------------
     ethr =  9.09E-09,  avg # of iterations =  2.5

     negative rho (up, down):  4.570E-02 4.543E-02

     total cpu time spent up to now is      130.1 secs

     total energy              =    -282.00477106 Ry
     estimated scf accuracy    <       0.00016594 Ry

     total magnetization       =     5.88 Bohr mag/cell
     absolute magnetization    =     5.89 Bohr mag/cell
[tb_dev] Currently allocated     7.31E+00 Mbytes, locked:    0 /   9
[tb_pin] Currently allocated     0.00E+00 Mbytes, locked:    0 /   0

     iteration # 30     ecut=    60.00 Ry     beta= 0.10
     Davidson diagonalization with overlap

---- Real-time Memory Report at c_bands before calling an iterative solver
          1610 MiB given to the printing process from OS
          1378 MiB allocation reported by mallinfo(arena+hblkhd)
         52092 MiB available memory on the node where the printing process lives
     GPU memory used/free/total (MiB): 3072 / 13208 / 16280
------------------
     ethr =  9.09E-09,  avg # of iterations =  4.3

     negative rho (up, down):  4.643E-02 4.471E-02

     total cpu time spent up to now is      134.7 secs

     total energy              =    -281.99826993 Ry
     estimated scf accuracy    <       0.00024130 Ry

     total magnetization       =     5.68 Bohr mag/cell
     absolute magnetization    =     5.81 Bohr mag/cell
[tb_dev] Currently allocated     7.31E+00 Mbytes, locked:    0 /   9
[tb_pin] Currently allocated     0.00E+00 Mbytes, locked:    0 /   0

     iteration # 31     ecut=    60.00 Ry     beta= 0.10
     Davidson diagonalization with overlap

---- Real-time Memory Report at c_bands before calling an iterative solver
          1610 MiB given to the printing process from OS
          1378 MiB allocation reported by mallinfo(arena+hblkhd)
         52092 MiB available memory on the node where the printing process lives
     GPU memory used/free/total (MiB): 3072 / 13208 / 16280
------------------
     ethr =  9.09E-09,  avg # of iterations =  7.4

     negative rho (up, down):  4.629E-02 4.486E-02

     total cpu time spent up to now is      141.2 secs

     total energy              =    -282.00396021 Ry
     estimated scf accuracy    <       0.00004385 Ry

     total magnetization       =     7.08 Bohr mag/cell
     absolute magnetization    =     7.11 Bohr mag/cell
[tb_dev] Currently allocated     7.31E+00 Mbytes, locked:    0 /   9
[tb_pin] Currently allocated     0.00E+00 Mbytes, locked:    0 /   0

     iteration # 32     ecut=    60.00 Ry     beta= 0.10
     Davidson diagonalization with overlap

---- Real-time Memory Report at c_bands before calling an iterative solver
          1610 MiB given to the printing process from OS
          1378 MiB allocation reported by mallinfo(arena+hblkhd)
         52092 MiB available memory on the node where the printing process lives
     GPU memory used/free/total (MiB): 3072 / 13208 / 16280
------------------
     ethr =  9.09E-09,  avg # of iterations =  4.4

     negative rho (up, down):  4.655E-02 4.460E-02

     total cpu time spent up to now is      146.0 secs

     total energy              =    -282.00339313 Ry
     estimated scf accuracy    <       0.00002848 Ry

     total magnetization       =     6.82 Bohr mag/cell
     absolute magnetization    =     6.84 Bohr mag/cell
[tb_dev] Currently allocated     7.31E+00 Mbytes, locked:    0 /   9
[tb_pin] Currently allocated     0.00E+00 Mbytes, locked:    0 /   0

     iteration # 33     ecut=    60.00 Ry     beta= 0.10
     Davidson diagonalization with overlap

---- Real-time Memory Report at c_bands before calling an iterative solver
          1610 MiB given to the printing process from OS
          1378 MiB allocation reported by mallinfo(arena+hblkhd)
         52091 MiB available memory on the node where the printing process lives
     GPU memory used/free/total (MiB): 3072 / 13208 / 16280
------------------
     ethr =  9.09E-09,  avg # of iterations =  5.6

     negative rho (up, down):  4.631E-02 4.484E-02

     total cpu time spent up to now is      152.3 secs

     total energy              =    -282.00366126 Ry
     estimated scf accuracy    <       0.00005234 Ry

     total magnetization       =     7.24 Bohr mag/cell
     absolute magnetization    =     7.27 Bohr mag/cell
[tb_dev] Currently allocated     7.31E+00 Mbytes, locked:    0 /   9
[tb_pin] Currently allocated     0.00E+00 Mbytes, locked:    0 /   0

     iteration # 34     ecut=    60.00 Ry     beta= 0.10
     Davidson diagonalization with overlap

---- Real-time Memory Report at c_bands before calling an iterative solver
          1610 MiB given to the printing process from OS
          1378 MiB allocation reported by mallinfo(arena+hblkhd)
         52090 MiB available memory on the node where the printing process lives
     GPU memory used/free/total (MiB): 3072 / 13208 / 16280
------------------
     ethr =  9.09E-09,  avg # of iterations =  5.6

     negative rho (up, down):  4.653E-02 4.463E-02

     total cpu time spent up to now is      157.6 secs

     total energy              =    -282.00357198 Ry
     estimated scf accuracy    <       0.00002111 Ry

     total magnetization       =     6.83 Bohr mag/cell
     absolute magnetization    =     6.85 Bohr mag/cell
[tb_dev] Currently allocated     7.31E+00 Mbytes, locked:    0 /   9
[tb_pin] Currently allocated     0.00E+00 Mbytes, locked:    0 /   0

     iteration # 35     ecut=    60.00 Ry     beta= 0.10
     Davidson diagonalization with overlap

---- Real-time Memory Report at c_bands before calling an iterative solver
          1610 MiB given to the printing process from OS
          1378 MiB allocation reported by mallinfo(arena+hblkhd)
         52090 MiB available memory on the node where the printing process lives
     GPU memory used/free/total (MiB): 3072 / 13208 / 16280
------------------
     ethr =  9.09E-09,  avg # of iterations =  5.2

     negative rho (up, down):  4.877E-02 4.246E-02

     total cpu time spent up to now is      162.6 secs

     total energy              =    -281.95601943 Ry
     estimated scf accuracy    <       0.00004493 Ry

     total magnetization       =     7.19 Bohr mag/cell
     absolute magnetization    =     7.22 Bohr mag/cell
[tb_dev] Currently allocated     7.31E+00 Mbytes, locked:    0 /   9
[tb_pin] Currently allocated     0.00E+00 Mbytes, locked:    0 /   0

     iteration # 36     ecut=    60.00 Ry     beta= 0.10
     Davidson diagonalization with overlap

---- Real-time Memory Report at c_bands before calling an iterative solver
          1610 MiB given to the printing process from OS
          1378 MiB allocation reported by mallinfo(arena+hblkhd)
         52091 MiB available memory on the node where the printing process lives
     GPU memory used/free/total (MiB): 3072 / 13208 / 16280
------------------
     ethr =  9.09E-09,  avg # of iterations =  9.4

     negative rho (up, down):  4.824E-02 4.297E-02

     total cpu time spent up to now is      170.7 secs

     total energy              =    -281.98703186 Ry
     estimated scf accuracy    <       0.02407798 Ry

     total magnetization       =     8.53 Bohr mag/cell
     absolute magnetization    =     8.70 Bohr mag/cell
[tb_dev] Currently allocated     7.31E+00 Mbytes, locked:    0 /   9
[tb_pin] Currently allocated     0.00E+00 Mbytes, locked:    0 /   0

     iteration # 37     ecut=    60.00 Ry     beta= 0.10
     Davidson diagonalization with overlap

---- Real-time Memory Report at c_bands before calling an iterative solver
          1610 MiB given to the printing process from OS
          1378 MiB allocation reported by mallinfo(arena+hblkhd)
         52092 MiB available memory on the node where the printing process lives
     GPU memory used/free/total (MiB): 3072 / 13208 / 16280
------------------
     ethr =  9.09E-09,  avg # of iterations =  6.7

     negative rho (up, down):  4.830E-02 4.291E-02

     total cpu time spent up to now is      176.9 secs

     total energy              =    -281.98576725 Ry
     estimated scf accuracy    <       0.01867300 Ry

     total magnetization       =     8.48 Bohr mag/cell
     absolute magnetization    =     8.60 Bohr mag/cell
[tb_dev] Currently allocated     7.31E+00 Mbytes, locked:    0 /   9
[tb_pin] Currently allocated     0.00E+00 Mbytes, locked:    0 /   0

     iteration # 38     ecut=    60.00 Ry     beta= 0.10
     Davidson diagonalization with overlap

---- Real-time Memory Report at c_bands before calling an iterative solver
          1610 MiB given to the printing process from OS
          1378 MiB allocation reported by mallinfo(arena+hblkhd)
         52092 MiB available memory on the node where the printing process lives
     GPU memory used/free/total (MiB): 3072 / 13208 / 16280
------------------
     ethr =  9.09E-09,  avg # of iterations =  3.0

     negative rho (up, down):  4.719E-02 4.398E-02

     total cpu time spent up to now is      181.0 secs

     total energy              =    -282.00062576 Ry
     estimated scf accuracy    <       0.01967564 Ry

     total magnetization       =     8.49 Bohr mag/cell
     absolute magnetization    =     8.62 Bohr mag/cell
[tb_dev] Currently allocated     7.31E+00 Mbytes, locked:    0 /   9
[tb_pin] Currently allocated     0.00E+00 Mbytes, locked:    0 /   0

     iteration # 39     ecut=    60.00 Ry     beta= 0.10
     Davidson diagonalization with overlap

---- Real-time Memory Report at c_bands before calling an iterative solver
          1610 MiB given to the printing process from OS
          1378 MiB allocation reported by mallinfo(arena+hblkhd)
         52091 MiB available memory on the node where the printing process lives
     GPU memory used/free/total (MiB): 3072 / 13208 / 16280
------------------
     ethr =  9.09E-09,  avg # of iterations =  8.2

     negative rho (up, down):  4.627E-02 4.487E-02

     total cpu time spent up to now is      188.0 secs

     total energy              =    -282.00009928 Ry
     estimated scf accuracy    <       0.00247933 Ry

     total magnetization       =     7.98 Bohr mag/cell
     absolute magnetization    =     8.04 Bohr mag/cell
[tb_dev] Currently allocated     7.31E+00 Mbytes, locked:    0 /   9
[tb_pin] Currently allocated     0.00E+00 Mbytes, locked:    0 /   0

     iteration # 40     ecut=    60.00 Ry     beta= 0.10
     Davidson diagonalization with overlap

---- Real-time Memory Report at c_bands before calling an iterative solver
          1610 MiB given to the printing process from OS
          1378 MiB allocation reported by mallinfo(arena+hblkhd)
         52092 MiB available memory on the node where the printing process lives
     GPU memory used/free/total (MiB): 3072 / 13208 / 16280
------------------
     ethr =  9.09E-09,  avg # of iterations =  7.5

     negative rho (up, down):  4.613E-02 4.501E-02

     total cpu time spent up to now is      194.7 secs

     total energy              =    -282.00410620 Ry
     estimated scf accuracy    <       0.00001501 Ry

     total magnetization       =     6.77 Bohr mag/cell
     absolute magnetization    =     6.79 Bohr mag/cell
[tb_dev] Currently allocated     7.31E+00 Mbytes, locked:    0 /   9
[tb_pin] Currently allocated     0.00E+00 Mbytes, locked:    0 /   0

     iteration # 41     ecut=    60.00 Ry     beta= 0.10
     Davidson diagonalization with overlap

---- Real-time Memory Report at c_bands before calling an iterative solver
          1610 MiB given to the printing process from OS
          1378 MiB allocation reported by mallinfo(arena+hblkhd)
         52093 MiB available memory on the node where the printing process lives
     GPU memory used/free/total (MiB): 3072 / 13208 / 16280
------------------
     ethr =  9.09E-09,  avg # of iterations =  4.2

     negative rho (up, down):  4.601E-02 4.513E-02

     total cpu time spent up to now is      199.4 secs

     total energy              =    -282.00424984 Ry
     estimated scf accuracy    <       0.00002829 Ry

     total magnetization       =     6.52 Bohr mag/cell
     absolute magnetization    =     6.53 Bohr mag/cell
[tb_dev] Currently allocated     7.31E+00 Mbytes, locked:    0 /   9
[tb_pin] Currently allocated     0.00E+00 Mbytes, locked:    0 /   0

     iteration # 42     ecut=    60.00 Ry     beta= 0.10
     Davidson diagonalization with overlap

---- Real-time Memory Report at c_bands before calling an iterative solver
          1610 MiB given to the printing process from OS
          1378 MiB allocation reported by mallinfo(arena+hblkhd)
         52092 MiB available memory on the node where the printing process lives
     GPU memory used/free/total (MiB): 3072 / 13208 / 16280
------------------
     ethr =  9.09E-09,  avg # of iterations =  4.6

     negative rho (up, down):  4.589E-02 4.525E-02

     total cpu time spent up to now is      204.2 secs

     total energy              =    -282.00439979 Ry
     estimated scf accuracy    <       0.00004563 Ry

     total magnetization       =     6.28 Bohr mag/cell
     absolute magnetization    =     6.30 Bohr mag/cell
[tb_dev] Currently allocated     7.31E+00 Mbytes, locked:    0 /   9
[tb_pin] Currently allocated     0.00E+00 Mbytes, locked:    0 /   0

     iteration # 43     ecut=    60.00 Ry     beta= 0.10
     Davidson diagonalization with overlap

---- Real-time Memory Report at c_bands before calling an iterative solver
          1610 MiB given to the printing process from OS
          1378 MiB allocation reported by mallinfo(arena+hblkhd)
         52092 MiB available memory on the node where the printing process lives
     GPU memory used/free/total (MiB): 3072 / 13208 / 16280
------------------
     ethr =  9.09E-09,  avg # of iterations =  4.2

     negative rho (up, down):  4.607E-02 4.507E-02

     total cpu time spent up to now is      208.8 secs

     total energy              =    -282.00399117 Ry
     estimated scf accuracy    <       0.00008429 Ry

     total magnetization       =     6.05 Bohr mag/cell
     absolute magnetization    =     6.06 Bohr mag/cell
[tb_dev] Currently allocated     7.31E+00 Mbytes, locked:    0 /   9
[tb_pin] Currently allocated     0.00E+00 Mbytes, locked:    0 /   0

     iteration # 44     ecut=    60.00 Ry     beta= 0.10
     Davidson diagonalization with overlap

---- Real-time Memory Report at c_bands before calling an iterative solver
          1610 MiB given to the printing process from OS
          1378 MiB allocation reported by mallinfo(arena+hblkhd)
         52092 MiB available memory on the node where the printing process lives
     GPU memory used/free/total (MiB): 3072 / 13208 / 16280
------------------
     ethr =  9.09E-09,  avg # of iterations =  4.6

     negative rho (up, down):  4.587E-02 4.526E-02

     total cpu time spent up to now is      213.6 secs

     total energy              =    -282.00419012 Ry
     estimated scf accuracy    <       0.00004456 Ry

     total magnetization       =     6.41 Bohr mag/cell
     absolute magnetization    =     6.42 Bohr mag/cell
[tb_dev] Currently allocated     7.31E+00 Mbytes, locked:    0 /   9
[tb_pin] Currently allocated     0.00E+00 Mbytes, locked:    0 /   0

     iteration # 45     ecut=    60.00 Ry     beta= 0.10
     Davidson diagonalization with overlap

---- Real-time Memory Report at c_bands before calling an iterative solver
          1610 MiB given to the printing process from OS
          1378 MiB allocation reported by mallinfo(arena+hblkhd)
         52092 MiB available memory on the node where the printing process lives
     GPU memory used/free/total (MiB): 3072 / 13208 / 16280
------------------
     ethr =  9.09E-09,  avg # of iterations =  4.9

     negative rho (up, down):  4.582E-02 4.531E-02

     total cpu time spent up to now is      218.5 secs

     total energy              =    -282.00461952 Ry
     estimated scf accuracy    <       0.00011529 Ry

     total magnetization       =     6.04 Bohr mag/cell
     absolute magnetization    =     6.04 Bohr mag/cell
[tb_dev] Currently allocated     7.31E+00 Mbytes, locked:    0 /   9
[tb_pin] Currently allocated     0.00E+00 Mbytes, locked:    0 /   0

     iteration # 46     ecut=    60.00 Ry     beta= 0.10
     Davidson diagonalization with overlap

---- Real-time Memory Report at c_bands before calling an iterative solver
          1610 MiB given to the printing process from OS
          1378 MiB allocation reported by mallinfo(arena+hblkhd)
         52092 MiB available memory on the node where the printing process lives
     GPU memory used/free/total (MiB): 3072 / 13208 / 16280
------------------
     ethr =  9.09E-09,  avg # of iterations =  2.8

     negative rho (up, down):  4.618E-02 4.496E-02

     total cpu time spent up to now is      222.5 secs

     total energy              =    -282.00283407 Ry
     estimated scf accuracy    <       0.00013795 Ry

     total magnetization       =     5.92 Bohr mag/cell
     absolute magnetization    =     5.94 Bohr mag/cell
[tb_dev] Currently allocated     7.31E+00 Mbytes, locked:    0 /   9
[tb_pin] Currently allocated     0.00E+00 Mbytes, locked:    0 /   0

     iteration # 47     ecut=    60.00 Ry     beta= 0.10
     Davidson diagonalization with overlap

---- Real-time Memory Report at c_bands before calling an iterative solver
          1610 MiB given to the printing process from OS
          1378 MiB allocation reported by mallinfo(arena+hblkhd)
         52093 MiB available memory on the node where the printing process lives
     GPU memory used/free/total (MiB): 3072 / 13208 / 16280
------------------
     ethr =  9.09E-09,  avg # of iterations =  6.2

     negative rho (up, down):  4.625E-02 4.490E-02

     total cpu time spent up to now is      228.3 secs

     total energy              =    -282.00415326 Ry
     estimated scf accuracy    <       0.00004184 Ry

     total magnetization       =     6.63 Bohr mag/cell
     absolute magnetization    =     6.65 Bohr mag/cell
[tb_dev] Currently allocated     7.31E+00 Mbytes, locked:    0 /   9
[tb_pin] Currently allocated     0.00E+00 Mbytes, locked:    0 /   0

     iteration # 48     ecut=    60.00 Ry     beta= 0.10
     Davidson diagonalization with overlap

---- Real-time Memory Report at c_bands before calling an iterative solver
          1610 MiB given to the printing process from OS
          1378 MiB allocation reported by mallinfo(arena+hblkhd)
         52093 MiB available memory on the node where the printing process lives
     GPU memory used/free/total (MiB): 3072 / 13208 / 16280
------------------
     ethr =  9.09E-09,  avg # of iterations =  2.8

     negative rho (up, down):  4.671E-02 4.444E-02

     total cpu time spent up to now is      232.2 secs

[...]
          1610 MiB given to the printing process from OS
          1378 MiB allocation reported by mallinfo(arena+hblkhd)
         52092 MiB available memory on the node where the printing process lives
     GPU memory used/free/total (MiB): 3072 / 13208 / 16280
------------------
     ethr =  9.09E-09,  avg # of iterations =  5.7

     negative rho (up, down):  4.648E-02 4.467E-02

     total cpu time spent up to now is      319.0 secs

     total energy              =    -282.00368302 Ry
     estimated scf accuracy    <       0.00018118 Ry

     total magnetization       =     7.46 Bohr mag/cell
     absolute magnetization    =     7.49 Bohr mag/cell
[tb_dev] Currently allocated     7.31E+00 Mbytes, locked:    0 /   9
[tb_pin] Currently allocated     0.00E+00 Mbytes, locked:    0 /   0

     iteration # 66     ecut=    60.00 Ry     beta= 0.10
     Davidson diagonalization with overlap

---- Real-time Memory Report at c_bands before calling an iterative solver
          1610 MiB given to the printing process from OS
          1378 MiB allocation reported by mallinfo(arena+hblkhd)
         52093 MiB available memory on the node where the printing process lives
     GPU memory used/free/total (MiB): 3072 / 13208 / 16280
------------------
     ethr =  9.09E-09,  avg # of iterations =  5.4

     negative rho (up, down):  4.648E-02 4.467E-02

     total cpu time spent up to now is      324.1 secs

     total energy              =    -282.00401911 Ry
     estimated scf accuracy    <       0.00004853 Ry

     total magnetization       =     7.13 Bohr mag/cell
     absolute magnetization    =     7.16 Bohr mag/cell
[tb_dev] Currently allocated     7.31E+00 Mbytes, locked:    0 /   9
[tb_pin] Currently allocated     0.00E+00 Mbytes, locked:    0 /   0

     iteration # 67     ecut=    60.00 Ry     beta= 0.10
     Davidson diagonalization with overlap

---- Real-time Memory Report at c_bands before calling an iterative solver
          1610 MiB given to the printing process from OS
          1378 MiB allocation reported by mallinfo(arena+hblkhd)
         52092 MiB available memory on the node where the printing process lives
     GPU memory used/free/total (MiB): 3072 / 13208 / 16280
------------------
     ethr =  9.09E-09,  avg # of iterations =  1.0

     negative rho (up, down):  4.646E-02 4.469E-02

     total cpu time spent up to now is      327.1 secs

     total energy              =    -282.00403497 Ry
     estimated scf accuracy    <       0.00004970 Ry

     total magnetization       =     7.14 Bohr mag/cell
     absolute magnetization    =     7.16 Bohr mag/cell
[tb_dev] Currently allocated     7.31E+00 Mbytes, locked:    0 /   9
[tb_pin] Currently allocated     0.00E+00 Mbytes, locked:    0 /   0

     iteration # 68     ecut=    60.00 Ry     beta= 0.10
     Davidson diagonalization with overlap

---- Real-time Memory Report at c_bands before calling an iterative solver
          1610 MiB given to the printing process from OS
          1378 MiB allocation reported by mallinfo(arena+hblkhd)
         52092 MiB available memory on the node where the printing process lives
     GPU memory used/free/total (MiB): 3072 / 13208 / 16280
------------------
     ethr =  9.09E-09,  avg # of iterations =  1.7

     negative rho (up, down):  4.630E-02 4.484E-02

     total cpu time spent up to now is      330.4 secs

     total energy              =    -282.00395302 Ry
     estimated scf accuracy    <       0.00004446 Ry

     total magnetization       =     7.10 Bohr mag/cell
     absolute magnetization    =     7.13 Bohr mag/cell
[tb_dev] Currently allocated     7.31E+00 Mbytes, locked:    0 /   9
[tb_pin] Currently allocated     0.00E+00 Mbytes, locked:    0 /   0

     iteration # 69     ecut=    60.00 Ry     beta= 0.10
     Davidson diagonalization with overlap

---- Real-time Memory Report at c_bands before calling an iterative solver
          1610 MiB given to the printing process from OS
          1378 MiB allocation reported by mallinfo(arena+hblkhd)
         52093 MiB available memory on the node where the printing process lives
     GPU memory used/free/total (MiB): 3072 / 13208 / 16280
------------------
     ethr =  9.09E-09,  avg # of iterations =  4.6

     negative rho (up, down):  4.595E-02 4.518E-02

     total cpu time spent up to now is      335.3 secs

     total energy              =    -282.00331212 Ry
     estimated scf accuracy    <       0.00003051 Ry

     total magnetization       =     6.84 Bohr mag/cell
     absolute magnetization    =     6.86 Bohr mag/cell
[tb_dev] Currently allocated     7.31E+00 Mbytes, locked:    0 /   9
[tb_pin] Currently allocated     0.00E+00 Mbytes, locked:    0 /   0

     iteration # 70     ecut=    60.00 Ry     beta= 0.10
     Davidson diagonalization with overlap

---- Real-time Memory Report at c_bands before calling an iterative solver
          1610 MiB given to the printing process from OS
          1378 MiB allocation reported by mallinfo(arena+hblkhd)
         52092 MiB available memory on the node where the printing process lives
     GPU memory used/free/total (MiB): 3072 / 13208 / 16280
------------------
     ethr =  9.09E-09,  avg # of iterations =  5.9

     negative rho (up, down):  4.604E-02 4.509E-02

     total cpu time spent up to now is      341.0 secs

     total energy              =    -282.00427304 Ry
     estimated scf accuracy    <       0.00008395 Ry

     total magnetization       =     6.20 Bohr mag/cell
     absolute magnetization    =     6.21 Bohr mag/cell
[tb_dev] Currently allocated     7.31E+00 Mbytes, locked:    0 /   9
[tb_pin] Currently allocated     0.00E+00 Mbytes, locked:    0 /   0

     iteration # 71     ecut=    60.00 Ry     beta= 0.10
     Davidson diagonalization with overlap

---- Real-time Memory Report at c_bands before calling an iterative solver
          1610 MiB given to the printing process from OS
          1378 MiB allocation reported by mallinfo(arena+hblkhd)
         52092 MiB available memory on the node where the printing process lives
     GPU memory used/free/total (MiB): 3072 / 13208 / 16280
------------------
     ethr =  9.09E-09,  avg # of iterations =  3.8

     negative rho (up, down):  4.599E-02 4.515E-02

     total cpu time spent up to now is      345.3 secs

     total energy              =    -282.00438761 Ry
     estimated scf accuracy    <       0.00005726 Ry

     total magnetization       =     6.37 Bohr mag/cell
     absolute magnetization    =     6.39 Bohr mag/cell
[tb_dev] Currently allocated     7.31E+00 Mbytes, locked:    0 /   9
[tb_pin] Currently allocated     0.00E+00 Mbytes, locked:    0 /   0

     iteration # 72     ecut=    60.00 Ry     beta= 0.10
     Davidson diagonalization with overlap

---- Real-time Memory Report at c_bands before calling an iterative solver
          1610 MiB given to the printing process from OS
          1378 MiB allocation reported by mallinfo(arena+hblkhd)
         52093 MiB available memory on the node where the printing process lives
     GPU memory used/free/total (MiB): 3072 / 13208 / 16280
------------------
     ethr =  9.09E-09,  avg # of iterations =  3.0

     negative rho (up, down):  4.602E-02 4.511E-02

     total cpu time spent up to now is      349.3 secs

     total energy              =    -282.00436942 Ry
     estimated scf accuracy    <       0.00007079 Ry

     total magnetization       =     6.27 Bohr mag/cell
     absolute magnetization    =     6.28 Bohr mag/cell
[tb_dev] Currently allocated     7.31E+00 Mbytes, locked:    0 /   9
[tb_pin] Currently allocated     0.00E+00 Mbytes, locked:    0 /   0

     iteration # 73     ecut=    60.00 Ry     beta= 0.10
     Davidson diagonalization with overlap

---- Real-time Memory Report at c_bands before calling an iterative solver
          1610 MiB given to the printing process from OS
          1378 MiB allocation reported by mallinfo(arena+hblkhd)
         52092 MiB available memory on the node where the printing process lives
     GPU memory used/free/total (MiB): 3072 / 13208 / 16280
------------------
     ethr =  9.09E-09,  avg # of iterations =  2.4

     negative rho (up, down):  4.605E-02 4.509E-02

     total cpu time spent up to now is      352.9 secs

     total energy              =    -282.00434519 Ry
     estimated scf accuracy    <       0.00006285 Ry

     total magnetization       =     6.33 Bohr mag/cell
     absolute magnetization    =     6.35 Bohr mag/cell
[tb_dev] Currently allocated     7.31E+00 Mbytes, locked:    0 /   9
[tb_pin] Currently allocated     0.00E+00 Mbytes, locked:    0 /   0

     iteration # 74     ecut=    60.00 Ry     beta= 0.10
     Davidson diagonalization with overlap

---- Real-time Memory Report at c_bands before calling an iterative solver
          1610 MiB given to the printing process from OS
          1378 MiB allocation reported by mallinfo(arena+hblkhd)
         52092 MiB available memory on the node where the printing process lives
     GPU memory used/free/total (MiB): 3072 / 13208 / 16280
------------------
     ethr =  9.09E-09,  avg # of iterations =  2.1

     negative rho (up, down):  4.648E-02 4.467E-02

     total cpu time spent up to now is      356.3 secs

     total energy              =    -282.00229481 Ry
     estimated scf accuracy    <       0.00005586 Ry

     total magnetization       =     6.39 Bohr mag/cell
     absolute magnetization    =     6.40 Bohr mag/cell
[tb_dev] Currently allocated     7.31E+00 Mbytes, locked:    0 /   9
[tb_pin] Currently allocated     0.00E+00 Mbytes, locked:    0 /   0

     iteration # 75     ecut=    60.00 Ry     beta= 0.10
     Davidson diagonalization with overlap

---- Real-time Memory Report at c_bands before calling an iterative solver
          1610 MiB given to the printing process from OS
          1378 MiB allocation reported by mallinfo(arena+hblkhd)
         52091 MiB available memory on the node where the printing process lives
     GPU memory used/free/total (MiB): 3072 / 13208 / 16280
------------------
     ethr =  9.09E-09,  avg # of iterations =  6.7

     negative rho (up, down):  4.637E-02 4.478E-02

     total cpu time spent up to now is      362.3 secs

     total energy              =    -282.00400180 Ry
     estimated scf accuracy    <       0.00004860 Ry

     total magnetization       =     7.14 Bohr mag/cell
     absolute magnetization    =     7.16 Bohr mag/cell
[tb_dev] Currently allocated     7.31E+00 Mbytes, locked:    0 /   9
[tb_pin] Currently allocated     0.00E+00 Mbytes, locked:    0 /   0

     iteration # 76     ecut=    60.00 Ry     beta= 0.10
     Davidson diagonalization with overlap

---- Real-time Memory Report at c_bands before calling an iterative solver
          1610 MiB given to the printing process from OS
          1378 MiB allocation reported by mallinfo(arena+hblkhd)
         52092 MiB available memory on the node where the printing process lives
     GPU memory used/free/total (MiB): 3072 / 13208 / 16280
------------------
     ethr =  9.09E-09,  avg # of iterations =  4.2

     negative rho (up, down):  4.654E-02 4.462E-02

     total cpu time spent up to now is      366.7 secs

     total energy              =    -282.00374436 Ry
     estimated scf accuracy    <       0.00003043 Ry

     total magnetization       =     6.95 Bohr mag/cell
     absolute magnetization    =     6.97 Bohr mag/cell
[tb_dev] Currently allocated     7.31E+00 Mbytes, locked:    0 /   9
[tb_pin] Currently allocated     0.00E+00 Mbytes, locked:    0 /   0

     iteration # 77     ecut=    60.00 Ry     beta= 0.10
     Davidson diagonalization with overlap

---- Real-time Memory Report at c_bands before calling an iterative solver
          1610 MiB given to the printing process from OS
          1378 MiB allocation reported by mallinfo(arena+hblkhd)
         52093 MiB available memory on the node where the printing process lives
     GPU memory used/free/total (MiB): 3072 / 13208 / 16280
------------------
     ethr =  9.09E-09,  avg # of iterations =  4.4

     negative rho (up, down):  4.645E-02 4.470E-02

     total cpu time spent up to now is      371.4 secs

     total energy              =    -282.00399497 Ry
     estimated scf accuracy    <       0.00006167 Ry

     total magnetization       =     7.21 Bohr mag/cell
     absolute magnetization    =     7.24 Bohr mag/cell
[tb_dev] Currently allocated     7.31E+00 Mbytes, locked:    0 /   9
[tb_pin] Currently allocated     0.00E+00 Mbytes, locked:    0 /   0

     iteration # 78     ecut=    60.00 Ry     beta= 0.10
     Davidson diagonalization with overlap

---- Real-time Memory Report at c_bands before calling an iterative solver
          1610 MiB given to the printing process from OS
          1378 MiB allocation reported by mallinfo(arena+hblkhd)
         52093 MiB available memory on the node where the printing process lives
     GPU memory used/free/total (MiB): 3072 / 13208 / 16280
------------------
     ethr =  9.09E-09,  avg # of iterations =  3.5

     negative rho (up, down):  4.634E-02 4.481E-02

     total cpu time spent up to now is      375.7 secs

     total energy              =    -282.00402170 Ry
     estimated scf accuracy    <       0.00004132 Ry

     total magnetization       =     7.09 Bohr mag/cell
     absolute magnetization    =     7.11 Bohr mag/cell
[tb_dev] Currently allocated     7.31E+00 Mbytes, locked:    0 /   9
[tb_pin] Currently allocated     0.00E+00 Mbytes, locked:    0 /   0

     iteration # 79     ecut=    60.00 Ry     beta= 0.10
     Davidson diagonalization with overlap

---- Real-time Memory Report at c_bands before calling an iterative solver
          1610 MiB given to the printing process from OS
          1378 MiB allocation reported by mallinfo(arena+hblkhd)
         52092 MiB available memory on the node where the printing process lives
     GPU memory used/free/total (MiB): 3072 / 13208 / 16280
------------------
     ethr =  9.09E-09,  avg # of iterations =  4.3

     negative rho (up, down):  4.618E-02 4.496E-02

     total cpu time spent up to now is      380.3 secs

     total energy              =    -282.00401051 Ry
     estimated scf accuracy    <       0.00002974 Ry

     total magnetization       =     6.90 Bohr mag/cell
     absolute magnetization    =     6.92 Bohr mag/cell
[tb_dev] Currently allocated     7.31E+00 Mbytes, locked:    0 /   9
[tb_pin] Currently allocated     0.00E+00 Mbytes, locked:    0 /   0

     iteration # 80     ecut=    60.00 Ry     beta= 0.10
     Davidson diagonalization with overlap

---- Real-time Memory Report at c_bands before calling an iterative solver
          1610 MiB given to the printing process from OS
          1378 MiB allocation reported by mallinfo(arena+hblkhd)
         52093 MiB available memory on the node where the printing process lives
     GPU memory used/free/total (MiB): 3072 / 13208 / 16280
------------------
     ethr =  9.09E-09,  avg # of iterations =  4.6

     negative rho (up, down):  4.626E-02 4.488E-02

     total cpu time spent up to now is      385.1 secs

     total energy              =    -282.00413378 Ry
     estimated scf accuracy    <       0.00003406 Ry

     total magnetization       =     6.61 Bohr mag/cell
     absolute magnetization    =     6.63 Bohr mag/cell

     End of self-consistent calculation

     convergence NOT achieved after  80 iterations: stopping

     Writing config to output data dir ./out/aiida.save/
 
     init_run     :     10.53s CPU      2.51s WALL (       1 calls)
     electrons    :    625.34s CPU    381.92s WALL (       1 calls)

     Called by init_run:
     wfcinit      :      0.13s CPU      0.13s WALL (       1 calls)
                                        0.13s GPU  (       1 calls)
     potinit      :      0.67s CPU      0.18s WALL (       1 calls)
     hinit0       :      7.21s CPU      1.30s WALL (       1 calls)

     Called by electrons:
     c_bands      :    361.69s CPU    309.19s WALL (      81 calls)
     sum_band     :     48.91s CPU     52.58s WALL (      81 calls)
     v_of_rho     :     54.73s CPU      4.99s WALL (      81 calls)
     v_h          :      8.00s CPU      0.71s WALL (      81 calls)
     v_xc         :     46.72s CPU      4.28s WALL (      81 calls)
     newd         :     80.52s CPU      7.69s WALL (      81 calls)
                                        7.69s GPU  (      81 calls)
     mix_rho      :     56.71s CPU      5.55s WALL (      81 calls)

     Called by c_bands:
     init_us_2    :     17.10s CPU     16.33s WALL (    9396 calls)
     init_us_2:gp :     16.91s CPU     16.16s WALL (    9396 calls)
     cegterg      :    307.89s CPU    267.93s WALL (    4698 calls)

     Called by sum_band:
     sum_band:wei :      0.21s CPU      0.21s WALL (      81 calls)
                                        0.21s GPU  (      81 calls)
     sum_band:loo :     37.77s CPU     41.24s WALL (      81 calls)
                                       41.24s GPU  (      81 calls)
     sum_band:buf :      9.55s CPU      9.89s WALL (    4698 calls)
                                        9.86s GPU  (    4698 calls)
     sum_band:ini :      6.61s CPU      7.87s WALL (    4698 calls)
                                        7.85s GPU  (    4698 calls)
     sum_band:cal :      0.14s CPU      1.79s WALL (    4698 calls)
                                        1.48s GPU  (    4698 calls)
     sum_band:bec :      1.22s CPU      1.31s WALL (    4698 calls)
                                        1.28s GPU  (    4698 calls)
     addusdens    :      7.58s CPU      7.76s WALL (      81 calls)
                                        7.76s GPU  (      81 calls)
     addusd:skk   :      0.04s CPU      0.04s WALL (     243 calls)
                                        0.04s GPU  (     243 calls)

     Called by *egterg:
     cdiaghg      :     77.32s CPU     73.41s WALL (   24473 calls)
                                       73.24s GPU  (   24473 calls)
     cegterg:over :      8.13s CPU      7.08s WALL (   19891 calls)
     cegterg:upda :     10.17s CPU      8.86s WALL (   19891 calls)
     cegterg:last :      6.28s CPU      5.58s WALL (   13762 calls)
     h_psi        :    183.47s CPU    154.05s WALL (   24589 calls)
                                      153.80s GPU  (   24589 calls)
     s_psi        :      4.00s CPU      8.83s WALL (   24589 calls)
                                        8.27s GPU  (   24589 calls)
     g_psi        :      0.18s CPU      0.92s WALL (   19891 calls)
                                        0.79s GPU  (   19891 calls)

     Called by h_psi:
     h_psi:calbec :      1.00s CPU      6.61s WALL (   24589 calls)
                                        6.46s GPU  (   24589 calls)
     vloc_psi     :    160.11s CPU    135.00s WALL (   24589 calls)
                                      134.85s GPU  (   24589 calls)
     add_vuspsi   :      6.55s CPU     10.26s WALL (   24589 calls)
                                       10.10s GPU  (   24589 calls)

     General routines
     calbec       :      0.82s CPU      0.71s WALL (   29287 calls)
     fft          :      2.66s CPU      0.72s WALL (    2025 calls)
                                        0.57s GPU  (    1863 calls)
     ffts         :      0.11s CPU      0.08s WALL (     324 calls)
                                        0.02s GPU  (     162 calls)
     fftw         :      2.99s CPU    107.39s WALL (  118762 calls)
                                      106.57s GPU  (  118762 calls)
     interpolate  :      8.30s CPU      0.73s WALL (     162 calls)
     davcio       :      0.43s CPU      0.70s WALL (     134 calls)
 
     Parallel routines
 
     PWSCF        :  10m38.58s CPU   6m25.61s WALL

 
   This run was terminated on:  20:12:17  23Oct2023            

=------------------------------------------------------------------------------=
   JOB DONE.
=------------------------------------------------------------------------------=
