
     Program PWSCF v.7.2 starts on 23Oct2023 at 21:50:29 

     This program is part of the open-source Quantum ESPRESSO suite
     for quantum simulation of materials; please cite
         "P. Giannozzi et al., J. Phys.:Condens. Matter 21 395502 (2009);
         "P. Giannozzi et al., J. Phys.:Condens. Matter 29 465901 (2017);
         "P. Giannozzi et al., J. Chem. Phys. 152 154105 (2020);
          URL http://www.quantum-espresso.org", 
     in publications or presentations arising from this work. More details at
     http://www.quantum-espresso.org/quote

     Parallel version (MPI & OpenMP), running on      12 processor cores
     Number of MPI processes:                 1
     Threads/MPI process:                    12

     MPI processes distributed on     1 nodes
     60295 MiB available memory on the printing compute node when the environment starts
 
     Reading input from aiida.in

     Current dimensions of program PWSCF are:
     Max number of different atomic species (ntypx) = 10
     Max number of k-points (npk) =  40000
     Max angular momentum in pseudopotentials (lmaxx) =  4
     Message from routine setup:
     using ibrav=0 with symmetry is DISCOURAGED, use correct ibrav instead
 
     Subspace diagonalization in iterative solution of the eigenvalue problem:
     a serial algorithm will be used

 
     G-vector sticks info
     --------------------
     sticks:   dense  smooth     PW     G-vecs:    dense   smooth      PW
     Sum        3313    1101    325               143665    27609    4385
 
     Using Slab Decomposition
 


     bravais-lattice index     =            0
     lattice parameter (alat)  =       7.3095  a.u.
     unit-cell volume          =     390.5314 (a.u.)^3
     number of atoms/cell      =            5
     number of atomic types    =            2
     number of electrons       =        65.00
     number of Kohn-Sham states=           40
     kinetic-energy cutoff     =      65.0000  Ry
     charge density cutoff     =     780.0000  Ry
     scf convergence threshold =      1.0E-09
     mixing beta               =       0.2000
     number of iterations used =            8  plain     mixing
     Exchange-correlation= PBESOL
                           (   1   4  10   8   0   0   0)

     GPU acceleration is ACTIVE.


     GPU used by master process:

        Device Number: 0
        Device name: Tesla P100-PCIE-16GB
        Compute capability : 60
        Ratio of single to double precision performance  : 2
        Memory Clock Rate (KHz): 715000
        Memory Bus Width (bits): 4096
        Peak Memory Bandwidth (GB/s): 732.16

     celldm(1)=   7.309461  celldm(2)=   0.000000  celldm(3)=   0.000000
     celldm(4)=   0.000000  celldm(5)=   0.000000  celldm(6)=   0.000000

     crystal axes: (cart. coord. in units of alat)
               a(1) = (   1.000000   0.000000   0.000000 )  
               a(2) = (   0.000000   1.000000   0.000000 )  
               a(3) = (   0.000000   0.000000   1.000000 )  

     reciprocal axes: (cart. coord. in units 2 pi/alat)
               b(1) = (  1.000000  0.000000  0.000000 )  
               b(2) = (  0.000000  1.000000  0.000000 )  
               b(3) = (  0.000000  0.000000  1.000000 )  


     PseudoPot. # 1 for Mn read from file:
     ./pseudo/mn_pbesol_v1.5.uspp.F.UPF
     MD5 check sum: 0716d5f563e6e95a34f9080f4c78c109
     Pseudo is Ultrasoft + core correction, Zval = 15.0
     Generated by new atomic code, or converted to UPF format
     Using radial grid of  859 points,  6 beta functions with: 
                l(1) =   0
                l(2) =   0
                l(3) =   1
                l(4) =   1
                l(5) =   2
                l(6) =   2
     Q(r) pseudized with  8 coefficients,  rinner =    0.950   0.950   0.950
                                                       0.950   0.950

     PseudoPot. # 2 for N  read from file:
     ./pseudo/N.pbesol-theos.UPF
     MD5 check sum: 1b64827339d390a5a22afef3ff345c9d
     Pseudo is Ultrasoft + core correction, Zval =  5.0
     Generated using "atomic" code by A. Dal Corso  v.5.1
     Using radial grid of 1085 points,  4 beta functions with: 
                l(1) =   0
                l(2) =   0
                l(3) =   1
                l(4) =   1
     Q(r) pseudized with 0 coefficients 


     atomic species   valence    mass     pseudopotential
        Mn            15.00    54.93805     Mn( 1.00)
        N              5.00    14.00670     N ( 1.00)

     Starting magnetic structure 
     atomic species   magnetization
        Mn           0.333
        N            0.100

     48 Sym. Ops., with inversion, found


                                    s                        frac. trans.

      isym =  1     identity                                     

 cryst.   s( 1) = (     1          0          0      )
                  (     0          1          0      )
                  (     0          0          1      )

 cart.    s( 1) = (  1.0000000  0.0000000  0.0000000 )
                  (  0.0000000  1.0000000  0.0000000 )
                  (  0.0000000  0.0000000  1.0000000 )


      isym =  2     180 deg rotation - cart. axis [0,0,1]        

 cryst.   s( 2) = (    -1          0          0      )
                  (     0         -1          0      )
                  (     0          0          1      )

 cart.    s( 2) = ( -1.0000000  0.0000000  0.0000000 )
                  (  0.0000000 -1.0000000  0.0000000 )
                  (  0.0000000  0.0000000  1.0000000 )


      isym =  3     180 deg rotation - cart. axis [0,1,0]        

 cryst.   s( 3) = (    -1          0          0      )
                  (     0          1          0      )
                  (     0          0         -1      )

 cart.    s( 3) = ( -1.0000000  0.0000000  0.0000000 )
                  (  0.0000000  1.0000000  0.0000000 )
                  (  0.0000000  0.0000000 -1.0000000 )


      isym =  4     180 deg rotation - cart. axis [1,0,0]        

 cryst.   s( 4) = (     1          0          0      )
                  (     0         -1          0      )
                  (     0          0         -1      )

 cart.    s( 4) = (  1.0000000  0.0000000  0.0000000 )
                  (  0.0000000 -1.0000000  0.0000000 )
                  (  0.0000000  0.0000000 -1.0000000 )


      isym =  5     180 deg rotation - cart. axis [1,1,0]        

 cryst.   s( 5) = (     0          1          0      )
                  (     1          0          0      )
                  (     0          0         -1      )

 cart.    s( 5) = (  0.0000000  1.0000000  0.0000000 )
                  (  1.0000000  0.0000000  0.0000000 )
                  (  0.0000000  0.0000000 -1.0000000 )


      isym =  6     180 deg rotation - cart. axis [1,-1,0]       

 cryst.   s( 6) = (     0         -1          0      )
                  (    -1          0          0      )
                  (     0          0         -1      )

 cart.    s( 6) = (  0.0000000 -1.0000000  0.0000000 )
                  ( -1.0000000  0.0000000  0.0000000 )
                  (  0.0000000  0.0000000 -1.0000000 )


      isym =  7      90 deg rotation - cart. axis [0,0,-1]       

 cryst.   s( 7) = (     0         -1          0      )
                  (     1          0          0      )
                  (     0          0          1      )

 cart.    s( 7) = (  0.0000000  1.0000000  0.0000000 )
                  ( -1.0000000  0.0000000  0.0000000 )
                  (  0.0000000  0.0000000  1.0000000 )


      isym =  8      90 deg rotation - cart. axis [0,0,1]        

 cryst.   s( 8) = (     0          1          0      )
                  (    -1          0          0      )
                  (     0          0          1      )

 cart.    s( 8) = (  0.0000000 -1.0000000  0.0000000 )
                  (  1.0000000  0.0000000  0.0000000 )
                  (  0.0000000  0.0000000  1.0000000 )


      isym =  9     180 deg rotation - cart. axis [1,0,1]        

 cryst.   s( 9) = (     0          0          1      )
                  (     0         -1          0      )
                  (     1          0          0      )

 cart.    s( 9) = (  0.0000000  0.0000000  1.0000000 )
                  (  0.0000000 -1.0000000  0.0000000 )
                  (  1.0000000  0.0000000  0.0000000 )


      isym = 10     180 deg rotation - cart. axis [-1,0,1]       

 cryst.   s(10) = (     0          0         -1      )
                  (     0         -1          0      )
                  (    -1          0          0      )

 cart.    s(10) = (  0.0000000  0.0000000 -1.0000000 )
                  (  0.0000000 -1.0000000  0.0000000 )
                  ( -1.0000000  0.0000000  0.0000000 )


      isym = 11      90 deg rotation - cart. axis [0,1,0]        

 cryst.   s(11) = (     0          0         -1      )
                  (     0          1          0      )
                  (     1          0          0      )

 cart.    s(11) = (  0.0000000  0.0000000  1.0000000 )
                  (  0.0000000  1.0000000  0.0000000 )
                  ( -1.0000000  0.0000000  0.0000000 )


      isym = 12      90 deg rotation - cart. axis [0,-1,0]       

 cryst.   s(12) = (     0          0          1      )
                  (     0          1          0      )
                  (    -1          0          0      )

 cart.    s(12) = (  0.0000000  0.0000000 -1.0000000 )
                  (  0.0000000  1.0000000  0.0000000 )
                  (  1.0000000  0.0000000  0.0000000 )


      isym = 13     180 deg rotation - cart. axis [0,1,1]        

 cryst.   s(13) = (    -1          0          0      )
                  (     0          0          1      )
                  (     0          1          0      )

 cart.    s(13) = ( -1.0000000  0.0000000  0.0000000 )
                  (  0.0000000  0.0000000  1.0000000 )
                  (  0.0000000  1.0000000  0.0000000 )


      isym = 14     180 deg rotation - cart. axis [0,1,-1]       

 cryst.   s(14) = (    -1          0          0      )
                  (     0          0         -1      )
                  (     0         -1          0      )

 cart.    s(14) = ( -1.0000000  0.0000000  0.0000000 )
                  (  0.0000000  0.0000000 -1.0000000 )
                  (  0.0000000 -1.0000000  0.0000000 )


      isym = 15      90 deg rotation - cart. axis [-1,0,0]       

 cryst.   s(15) = (     1          0          0      )
                  (     0          0         -1      )
                  (     0          1          0      )

 cart.    s(15) = (  1.0000000  0.0000000  0.0000000 )
                  (  0.0000000  0.0000000  1.0000000 )
                  (  0.0000000 -1.0000000  0.0000000 )


      isym = 16      90 deg rotation - cart. axis [1,0,0]        

 cryst.   s(16) = (     1          0          0      )
                  (     0          0          1      )
                  (     0         -1          0      )

 cart.    s(16) = (  1.0000000  0.0000000  0.0000000 )
                  (  0.0000000  0.0000000 -1.0000000 )
                  (  0.0000000  1.0000000  0.0000000 )


      isym = 17     120 deg rotation - cart. axis [-1,-1,-1]     

 cryst.   s(17) = (     0          0          1      )
                  (     1          0          0      )
                  (     0          1          0      )

 cart.    s(17) = (  0.0000000  1.0000000  0.0000000 )
                  (  0.0000000  0.0000000  1.0000000 )
                  (  1.0000000  0.0000000  0.0000000 )


      isym = 18     120 deg rotation - cart. axis [-1,1,1]       

 cryst.   s(18) = (     0          0         -1      )
                  (    -1          0          0      )
                  (     0          1          0      )

 cart.    s(18) = (  0.0000000 -1.0000000  0.0000000 )
                  (  0.0000000  0.0000000  1.0000000 )
                  ( -1.0000000  0.0000000  0.0000000 )


      isym = 19     120 deg rotation - cart. axis [1,1,-1]       

 cryst.   s(19) = (     0          0         -1      )
                  (     1          0          0      )
                  (     0         -1          0      )

 cart.    s(19) = (  0.0000000  1.0000000  0.0000000 )
                  (  0.0000000  0.0000000 -1.0000000 )
                  ( -1.0000000  0.0000000  0.0000000 )


      isym = 20     120 deg rotation - cart. axis [1,-1,1]       

 cryst.   s(20) = (     0          0          1      )
                  (    -1          0          0      )
                  (     0         -1          0      )

 cart.    s(20) = (  0.0000000 -1.0000000  0.0000000 )
                  (  0.0000000  0.0000000 -1.0000000 )
                  (  1.0000000  0.0000000  0.0000000 )


      isym = 21     120 deg rotation - cart. axis [1,1,1]        

 cryst.   s(21) = (     0          1          0      )
                  (     0          0          1      )
                  (     1          0          0      )

 cart.    s(21) = (  0.0000000  0.0000000  1.0000000 )
                  (  1.0000000  0.0000000  0.0000000 )
                  (  0.0000000  1.0000000  0.0000000 )


      isym = 22     120 deg rotation - cart. axis [-1,1,-1]      

 cryst.   s(22) = (     0         -1          0      )
                  (     0          0         -1      )
                  (     1          0          0      )

 cart.    s(22) = (  0.0000000  0.0000000  1.0000000 )
                  ( -1.0000000  0.0000000  0.0000000 )
                  (  0.0000000 -1.0000000  0.0000000 )


      isym = 23     120 deg rotation - cart. axis [1,-1,-1]      

 cryst.   s(23) = (     0         -1          0      )
                  (     0          0          1      )
                  (    -1          0          0      )

 cart.    s(23) = (  0.0000000  0.0000000 -1.0000000 )
                  ( -1.0000000  0.0000000  0.0000000 )
                  (  0.0000000  1.0000000  0.0000000 )


      isym = 24     120 deg rotation - cart. axis [-1,-1,1]      

 cryst.   s(24) = (     0          1          0      )
                  (     0          0         -1      )
                  (    -1          0          0      )

 cart.    s(24) = (  0.0000000  0.0000000 -1.0000000 )
                  (  1.0000000  0.0000000  0.0000000 )
                  (  0.0000000 -1.0000000  0.0000000 )


      isym = 25     inversion                                    

 cryst.   s(25) = (    -1          0          0      )
                  (     0         -1          0      )
                  (     0          0         -1      )

 cart.    s(25) = ( -1.0000000  0.0000000  0.0000000 )
                  (  0.0000000 -1.0000000  0.0000000 )
                  (  0.0000000  0.0000000 -1.0000000 )


      isym = 26     inv. 180 deg rotation - cart. axis [0,0,1]   

 cryst.   s(26) = (     1          0          0      )
                  (     0          1          0      )
                  (     0          0         -1      )

 cart.    s(26) = (  1.0000000  0.0000000  0.0000000 )
                  (  0.0000000  1.0000000  0.0000000 )
                  (  0.0000000  0.0000000 -1.0000000 )


      isym = 27     inv. 180 deg rotation - cart. axis [0,1,0]   

 cryst.   s(27) = (     1          0          0      )
                  (     0         -1          0      )
                  (     0          0          1      )

 cart.    s(27) = (  1.0000000  0.0000000  0.0000000 )
                  (  0.0000000 -1.0000000  0.0000000 )
                  (  0.0000000  0.0000000  1.0000000 )


      isym = 28     inv. 180 deg rotation - cart. axis [1,0,0]   

 cryst.   s(28) = (    -1          0          0      )
                  (     0          1          0      )
                  (     0          0          1      )

 cart.    s(28) = ( -1.0000000  0.0000000  0.0000000 )
                  (  0.0000000  1.0000000  0.0000000 )
                  (  0.0000000  0.0000000  1.0000000 )


      isym = 29     inv. 180 deg rotation - cart. axis [1,1,0]   

 cryst.   s(29) = (     0         -1          0      )
                  (    -1          0          0      )
                  (     0          0          1      )

 cart.    s(29) = (  0.0000000 -1.0000000  0.0000000 )
                  ( -1.0000000  0.0000000  0.0000000 )
                  (  0.0000000  0.0000000  1.0000000 )


      isym = 30     inv. 180 deg rotation - cart. axis [1,-1,0]  

 cryst.   s(30) = (     0          1          0      )
                  (     1          0          0      )
                  (     0          0          1      )

 cart.    s(30) = (  0.0000000  1.0000000  0.0000000 )
                  (  1.0000000  0.0000000  0.0000000 )
                  (  0.0000000  0.0000000  1.0000000 )


      isym = 31     inv.  90 deg rotation - cart. axis [0,0,-1]  

 cryst.   s(31) = (     0          1          0      )
                  (    -1          0          0      )
                  (     0          0         -1      )

 cart.    s(31) = (  0.0000000 -1.0000000  0.0000000 )
                  (  1.0000000  0.0000000  0.0000000 )
                  (  0.0000000  0.0000000 -1.0000000 )


      isym = 32     inv.  90 deg rotation - cart. axis [0,0,1]   

 cryst.   s(32) = (     0         -1          0      )
                  (     1          0          0      )
                  (     0          0         -1      )

 cart.    s(32) = (  0.0000000  1.0000000  0.0000000 )
                  ( -1.0000000  0.0000000  0.0000000 )
                  (  0.0000000  0.0000000 -1.0000000 )


      isym = 33     inv. 180 deg rotation - cart. axis [1,0,1]   

 cryst.   s(33) = (     0          0         -1      )
                  (     0          1          0      )
                  (    -1          0          0      )

 cart.    s(33) = (  0.0000000  0.0000000 -1.0000000 )
                  (  0.0000000  1.0000000  0.0000000 )
                  ( -1.0000000  0.0000000  0.0000000 )


      isym = 34     inv. 180 deg rotation - cart. axis [-1,0,1]  

 cryst.   s(34) = (     0          0          1      )
                  (     0          1          0      )
                  (     1          0          0      )

 cart.    s(34) = (  0.0000000  0.0000000  1.0000000 )
                  (  0.0000000  1.0000000  0.0000000 )
                  (  1.0000000  0.0000000  0.0000000 )


      isym = 35     inv.  90 deg rotation - cart. axis [0,1,0]   

 cryst.   s(35) = (     0          0          1      )
                  (     0         -1          0      )
                  (    -1          0          0      )

 cart.    s(35) = (  0.0000000  0.0000000 -1.0000000 )
                  (  0.0000000 -1.0000000  0.0000000 )
                  (  1.0000000  0.0000000  0.0000000 )


      isym = 36     inv.  90 deg rotation - cart. axis [0,-1,0]  

 cryst.   s(36) = (     0          0         -1      )
                  (     0         -1          0      )
                  (     1          0          0      )

 cart.    s(36) = (  0.0000000  0.0000000  1.0000000 )
                  (  0.0000000 -1.0000000  0.0000000 )
                  ( -1.0000000  0.0000000  0.0000000 )


      isym = 37     inv. 180 deg rotation - cart. axis [0,1,1]   

 cryst.   s(37) = (     1          0          0      )
                  (     0          0         -1      )
                  (     0         -1          0      )

 cart.    s(37) = (  1.0000000  0.0000000  0.0000000 )
                  (  0.0000000  0.0000000 -1.0000000 )
                  (  0.0000000 -1.0000000  0.0000000 )


      isym = 38     inv. 180 deg rotation - cart. axis [0,1,-1]  

 cryst.   s(38) = (     1          0          0      )
                  (     0          0          1      )
                  (     0          1          0      )

 cart.    s(38) = (  1.0000000  0.0000000  0.0000000 )
                  (  0.0000000  0.0000000  1.0000000 )
                  (  0.0000000  1.0000000  0.0000000 )


      isym = 39     inv.  90 deg rotation - cart. axis [-1,0,0]  

 cryst.   s(39) = (    -1          0          0      )
                  (     0          0          1      )
                  (     0         -1          0      )

 cart.    s(39) = ( -1.0000000  0.0000000  0.0000000 )
                  (  0.0000000  0.0000000 -1.0000000 )
                  (  0.0000000  1.0000000  0.0000000 )


      isym = 40     inv.  90 deg rotation - cart. axis [1,0,0]   

 cryst.   s(40) = (    -1          0          0      )
                  (     0          0         -1      )
                  (     0          1          0      )

 cart.    s(40) = ( -1.0000000  0.0000000  0.0000000 )
                  (  0.0000000  0.0000000  1.0000000 )
                  (  0.0000000 -1.0000000  0.0000000 )


      isym = 41     inv. 120 deg rotation - cart. axis [-1,-1,-1]

 cryst.   s(41) = (     0          0         -1      )
                  (    -1          0          0      )
                  (     0         -1          0      )

 cart.    s(41) = (  0.0000000 -1.0000000  0.0000000 )
                  (  0.0000000  0.0000000 -1.0000000 )
                  ( -1.0000000  0.0000000  0.0000000 )


      isym = 42     inv. 120 deg rotation - cart. axis [-1,1,1]  

 cryst.   s(42) = (     0          0          1      )
                  (     1          0          0      )
                  (     0         -1          0      )

 cart.    s(42) = (  0.0000000  1.0000000  0.0000000 )
                  (  0.0000000  0.0000000 -1.0000000 )
                  (  1.0000000  0.0000000  0.0000000 )


      isym = 43     inv. 120 deg rotation - cart. axis [1,1,-1]  

 cryst.   s(43) = (     0          0          1      )
                  (    -1          0          0      )
                  (     0          1          0      )

 cart.    s(43) = (  0.0000000 -1.0000000  0.0000000 )
                  (  0.0000000  0.0000000  1.0000000 )
                  (  1.0000000  0.0000000  0.0000000 )


      isym = 44     inv. 120 deg rotation - cart. axis [1,-1,1]  

 cryst.   s(44) = (     0          0         -1      )
                  (     1          0          0      )
                  (     0          1          0      )

 cart.    s(44) = (  0.0000000  1.0000000  0.0000000 )
                  (  0.0000000  0.0000000  1.0000000 )
                  ( -1.0000000  0.0000000  0.0000000 )


      isym = 45     inv. 120 deg rotation - cart. axis [1,1,1]   

 cryst.   s(45) = (     0         -1          0      )
                  (     0          0         -1      )
                  (    -1          0          0      )

 cart.    s(45) = (  0.0000000  0.0000000 -1.0000000 )
                  ( -1.0000000  0.0000000  0.0000000 )
                  (  0.0000000 -1.0000000  0.0000000 )


      isym = 46     inv. 120 deg rotation - cart. axis [-1,1,-1] 

 cryst.   s(46) = (     0          1          0      )
                  (     0          0          1      )
                  (    -1          0          0      )

 cart.    s(46) = (  0.0000000  0.0000000 -1.0000000 )
                  (  1.0000000  0.0000000  0.0000000 )
                  (  0.0000000  1.0000000  0.0000000 )


      isym = 47     inv. 120 deg rotation - cart. axis [1,-1,-1] 

 cryst.   s(47) = (     0          1          0      )
                  (     0          0         -1      )
                  (     1          0          0      )

 cart.    s(47) = (  0.0000000  0.0000000  1.0000000 )
                  (  1.0000000  0.0000000  0.0000000 )
                  (  0.0000000 -1.0000000  0.0000000 )


      isym = 48     inv. 120 deg rotation - cart. axis [-1,-1,1] 

 cryst.   s(48) = (     0         -1          0      )
                  (     0          0          1      )
                  (     1          0          0      )

 cart.    s(48) = (  0.0000000  0.0000000  1.0000000 )
                  ( -1.0000000  0.0000000  0.0000000 )
                  (  0.0000000  1.0000000  0.0000000 )


   Cartesian axes

     site n.     atom                  positions (alat units)
         1           Mn  tau(   1) = (   0.5000000   0.0000000   0.0000000  )
         2           Mn  tau(   2) = (   0.0000000   0.5000000   0.0000000  )
         3           Mn  tau(   3) = (   0.0000000   0.0000000   0.5000000  )
         4           Mn  tau(   4) = (   0.5000000   0.5000000   0.5000000  )
         5           N   tau(   5) = (   0.0000000   0.0000000   0.0000000  )

   Crystallographic axes

     site n.     atom                  positions (cryst. coord.)
         1           Mn  tau(   1) = (  0.5000000  0.0000000  0.0000000  )
         2           Mn  tau(   2) = (  0.0000000  0.5000000  0.0000000  )
         3           Mn  tau(   3) = (  0.0000000  0.0000000  0.5000000  )
         4           Mn  tau(   4) = (  0.5000000  0.5000000  0.5000000  )
         5           N   tau(   5) = (  0.0000000  0.0000000  0.0000000  )

     number of k points=    56  Marzari-Vanderbilt smearing, width (Ry)=  0.0100
                       cart. coord. in units 2pi/alat
        k(    1) = (   0.0000000   0.0000000   0.0000000), wk =   0.0007513
        k(    2) = (   0.0000000   0.0000000   0.0909091), wk =   0.0045079
        k(    3) = (   0.0000000   0.0000000   0.1818182), wk =   0.0045079
        k(    4) = (   0.0000000   0.0000000   0.2727273), wk =   0.0045079
        k(    5) = (   0.0000000   0.0000000   0.3636364), wk =   0.0045079
        k(    6) = (   0.0000000   0.0000000   0.4545455), wk =   0.0045079
        k(    7) = (   0.0000000   0.0909091   0.0909091), wk =   0.0090158
        k(    8) = (   0.0000000   0.0909091   0.1818182), wk =   0.0180316
        k(    9) = (   0.0000000   0.0909091   0.2727273), wk =   0.0180316
        k(   10) = (   0.0000000   0.0909091   0.3636364), wk =   0.0180316
        k(   11) = (   0.0000000   0.0909091   0.4545455), wk =   0.0180316
        k(   12) = (   0.0000000   0.1818182   0.1818182), wk =   0.0090158
        k(   13) = (   0.0000000   0.1818182   0.2727273), wk =   0.0180316
        k(   14) = (   0.0000000   0.1818182   0.3636364), wk =   0.0180316
        k(   15) = (   0.0000000   0.1818182   0.4545455), wk =   0.0180316
        k(   16) = (   0.0000000   0.2727273   0.2727273), wk =   0.0090158
        k(   17) = (   0.0000000   0.2727273   0.3636364), wk =   0.0180316
        k(   18) = (   0.0000000   0.2727273   0.4545455), wk =   0.0180316
        k(   19) = (   0.0000000   0.3636364   0.3636364), wk =   0.0090158
        k(   20) = (   0.0000000   0.3636364   0.4545455), wk =   0.0180316
        k(   21) = (   0.0000000   0.4545455   0.4545455), wk =   0.0090158
        k(   22) = (   0.0909091   0.0909091   0.0909091), wk =   0.0060105
        k(   23) = (   0.0909091   0.0909091   0.1818182), wk =   0.0180316
        k(   24) = (   0.0909091   0.0909091   0.2727273), wk =   0.0180316
        k(   25) = (   0.0909091   0.0909091   0.3636364), wk =   0.0180316
        k(   26) = (   0.0909091   0.0909091   0.4545455), wk =   0.0180316
        k(   27) = (   0.0909091   0.1818182   0.1818182), wk =   0.0180316
        k(   28) = (   0.0909091   0.1818182   0.2727273), wk =   0.0360631
        k(   29) = (   0.0909091   0.1818182   0.3636364), wk =   0.0360631
        k(   30) = (   0.0909091   0.1818182   0.4545455), wk =   0.0360631
        k(   31) = (   0.0909091   0.2727273   0.2727273), wk =   0.0180316
        k(   32) = (   0.0909091   0.2727273   0.3636364), wk =   0.0360631
        k(   33) = (   0.0909091   0.2727273   0.4545455), wk =   0.0360631
        k(   34) = (   0.0909091   0.3636364   0.3636364), wk =   0.0180316
        k(   35) = (   0.0909091   0.3636364   0.4545455), wk =   0.0360631
        k(   36) = (   0.0909091   0.4545455   0.4545455), wk =   0.0180316
        k(   37) = (   0.1818182   0.1818182   0.1818182), wk =   0.0060105
        k(   38) = (   0.1818182   0.1818182   0.2727273), wk =   0.0180316
        k(   39) = (   0.1818182   0.1818182   0.3636364), wk =   0.0180316
        k(   40) = (   0.1818182   0.1818182   0.4545455), wk =   0.0180316
        k(   41) = (   0.1818182   0.2727273   0.2727273), wk =   0.0180316
        k(   42) = (   0.1818182   0.2727273   0.3636364), wk =   0.0360631
        k(   43) = (   0.1818182   0.2727273   0.4545455), wk =   0.0360631
        k(   44) = (   0.1818182   0.3636364   0.3636364), wk =   0.0180316
        k(   45) = (   0.1818182   0.3636364   0.4545455), wk =   0.0360631
        k(   46) = (   0.1818182   0.4545455   0.4545455), wk =   0.0180316
        k(   47) = (   0.2727273   0.2727273   0.2727273), wk =   0.0060105
        k(   48) = (   0.2727273   0.2727273   0.3636364), wk =   0.0180316
        k(   49) = (   0.2727273   0.2727273   0.4545455), wk =   0.0180316
        k(   50) = (   0.2727273   0.3636364   0.3636364), wk =   0.0180316
        k(   51) = (   0.2727273   0.3636364   0.4545455), wk =   0.0360631
        k(   52) = (   0.2727273   0.4545455   0.4545455), wk =   0.0180316
        k(   53) = (   0.3636364   0.3636364   0.3636364), wk =   0.0060105
        k(   54) = (   0.3636364   0.3636364   0.4545455), wk =   0.0180316
        k(   55) = (   0.3636364   0.4545455   0.4545455), wk =   0.0180316
        k(   56) = (   0.4545455   0.4545455   0.4545455), wk =   0.0060105

                       cryst. coord.
        k(    1) = (   0.0000000   0.0000000   0.0000000), wk =   0.0007513
        k(    2) = (   0.0000000   0.0000000   0.0909091), wk =   0.0045079
        k(    3) = (   0.0000000   0.0000000   0.1818182), wk =   0.0045079
        k(    4) = (   0.0000000   0.0000000   0.2727273), wk =   0.0045079
        k(    5) = (   0.0000000   0.0000000   0.3636364), wk =   0.0045079
        k(    6) = (   0.0000000   0.0000000   0.4545455), wk =   0.0045079
        k(    7) = (   0.0000000   0.0909091   0.0909091), wk =   0.0090158
        k(    8) = (   0.0000000   0.0909091   0.1818182), wk =   0.0180316
        k(    9) = (   0.0000000   0.0909091   0.2727273), wk =   0.0180316
        k(   10) = (   0.0000000   0.0909091   0.3636364), wk =   0.0180316
        k(   11) = (   0.0000000   0.0909091   0.4545455), wk =   0.0180316
        k(   12) = (   0.0000000   0.1818182   0.1818182), wk =   0.0090158
        k(   13) = (   0.0000000   0.1818182   0.2727273), wk =   0.0180316
        k(   14) = (   0.0000000   0.1818182   0.3636364), wk =   0.0180316
        k(   15) = (   0.0000000   0.1818182   0.4545455), wk =   0.0180316
        k(   16) = (   0.0000000   0.2727273   0.2727273), wk =   0.0090158
        k(   17) = (   0.0000000   0.2727273   0.3636364), wk =   0.0180316
        k(   18) = (   0.0000000   0.2727273   0.4545455), wk =   0.0180316
        k(   19) = (   0.0000000   0.3636364   0.3636364), wk =   0.0090158
        k(   20) = (   0.0000000   0.3636364   0.4545455), wk =   0.0180316
        k(   21) = (   0.0000000   0.4545455   0.4545455), wk =   0.0090158
        k(   22) = (   0.0909091   0.0909091   0.0909091), wk =   0.0060105
        k(   23) = (   0.0909091   0.0909091   0.1818182), wk =   0.0180316
        k(   24) = (   0.0909091   0.0909091   0.2727273), wk =   0.0180316
        k(   25) = (   0.0909091   0.0909091   0.3636364), wk =   0.0180316
        k(   26) = (   0.0909091   0.0909091   0.4545455), wk =   0.0180316
        k(   27) = (   0.0909091   0.1818182   0.1818182), wk =   0.0180316
        k(   28) = (   0.0909091   0.1818182   0.2727273), wk =   0.0360631
        k(   29) = (   0.0909091   0.1818182   0.3636364), wk =   0.0360631
        k(   30) = (   0.0909091   0.1818182   0.4545455), wk =   0.0360631
        k(   31) = (   0.0909091   0.2727273   0.2727273), wk =   0.0180316
        k(   32) = (   0.0909091   0.2727273   0.3636364), wk =   0.0360631
        k(   33) = (   0.0909091   0.2727273   0.4545455), wk =   0.0360631
        k(   34) = (   0.0909091   0.3636364   0.3636364), wk =   0.0180316
        k(   35) = (   0.0909091   0.3636364   0.4545455), wk =   0.0360631
        k(   36) = (   0.0909091   0.4545455   0.4545455), wk =   0.0180316
        k(   37) = (   0.1818182   0.1818182   0.1818182), wk =   0.0060105
        k(   38) = (   0.1818182   0.1818182   0.2727273), wk =   0.0180316
        k(   39) = (   0.1818182   0.1818182   0.3636364), wk =   0.0180316
        k(   40) = (   0.1818182   0.1818182   0.4545455), wk =   0.0180316
        k(   41) = (   0.1818182   0.2727273   0.2727273), wk =   0.0180316
        k(   42) = (   0.1818182   0.2727273   0.3636364), wk =   0.0360631
        k(   43) = (   0.1818182   0.2727273   0.4545455), wk =   0.0360631
        k(   44) = (   0.1818182   0.3636364   0.3636364), wk =   0.0180316
        k(   45) = (   0.1818182   0.3636364   0.4545455), wk =   0.0360631
        k(   46) = (   0.1818182   0.4545455   0.4545455), wk =   0.0180316
        k(   47) = (   0.2727273   0.2727273   0.2727273), wk =   0.0060105
        k(   48) = (   0.2727273   0.2727273   0.3636364), wk =   0.0180316
        k(   49) = (   0.2727273   0.2727273   0.4545455), wk =   0.0180316
        k(   50) = (   0.2727273   0.3636364   0.3636364), wk =   0.0180316
        k(   51) = (   0.2727273   0.3636364   0.4545455), wk =   0.0360631
        k(   52) = (   0.2727273   0.4545455   0.4545455), wk =   0.0180316
        k(   53) = (   0.3636364   0.3636364   0.3636364), wk =   0.0060105
        k(   54) = (   0.3636364   0.3636364   0.4545455), wk =   0.0180316
        k(   55) = (   0.3636364   0.4545455   0.4545455), wk =   0.0180316
        k(   56) = (   0.4545455   0.4545455   0.4545455), wk =   0.0060105

     Dense  grid:   143665 G-vectors     FFT dimensions: (  72,  72,  72)

     Smooth grid:    27609 G-vectors     FFT dimensions: (  40,  40,  40)

     Dynamical RAM for                 wfc:       2.11 MB

     Dynamical RAM for     wfc (w. buffer):     238.36 MB

     Dynamical RAM for           str. fact:       4.38 MB

     Dynamical RAM for           local pot:       0.00 MB

     Dynamical RAM for          nlocal pot:       4.22 MB

     Dynamical RAM for                qrad:       4.48 MB

     Dynamical RAM for          rho,v,vnew:      30.24 MB

     Dynamical RAM for               rhoin:      10.08 MB

     Dynamical RAM for            rho*nmix:      70.15 MB

     Dynamical RAM for           G-vectors:       8.43 MB

     Dynamical RAM for          h,s,v(r/c):       0.29 MB

     Dynamical RAM for          <psi|beta>:       0.05 MB

     Dynamical RAM for                 psi:       4.22 MB

     Dynamical RAM for                hpsi:       4.22 MB

     Dynamical RAM for                spsi:       4.22 MB

     Dynamical RAM for      wfcinit/wfcrot:       4.26 MB

     Dynamical RAM for           addusdens:     418.70 MB

     Dynamical RAM for          addusforce:     431.89 MB

     Dynamical RAM for         addusstress:     443.91 MB

     Estimated static dynamical RAM per process >     323.85 MB

     Estimated max dynamical RAM per process >     837.91 MB

     Atomic positions and unit cell read from directory:
     ./out/aiida.save/
 

     Check: negative core charge=   -0.000021
     Generating pointlists ...
     new r_m :   0.2063 (alat units)  1.5076 (a.u.) for type    1
     new r_m :   0.2063 (alat units)  1.5076 (a.u.) for type    2

     The initial density is read from file :
     ./out/aiida.save/charge-density


     negative rho (up, down):  0.000E+00 4.260E-06
     Starting wfcs from file

     total cpu time spent up to now is        2.6 secs

     per-process dynamical memory:   447.8 Mb

     Self-consistent Calculation
[tb_dev] Currently allocated     3.81E-05 Mbytes, locked:    0 /   2
[tb_pin] Currently allocated     0.00E+00 Mbytes, locked:    0 /   0

     iteration #  1     ecut=    65.00 Ry     beta= 0.20
     Davidson diagonalization with overlap

---- Real-time Memory Report at c_bands before calling an iterative solver
           577 MiB given to the printing process from OS
           445 MiB allocation reported by mallinfo(arena+hblkhd)
         59602 MiB available memory on the node where the printing process lives
     GPU memory used/free/total (MiB): 710 / 15570 / 16280
------------------
     ethr =  1.00E-05,  avg # of iterations =  1.5

     Threshold (ethr) on eigenvalues was too large:
     Diagonalizing with lowered threshold

     Davidson diagonalization with overlap

---- Real-time Memory Report at c_bands before calling an iterative solver
          1163 MiB given to the printing process from OS
           982 MiB allocation reported by mallinfo(arena+hblkhd)
         58389 MiB available memory on the node where the printing process lives
     GPU memory used/free/total (MiB): 1408 / 14872 / 16280
------------------
     ethr =  3.79E-08,  avg # of iterations =  1.9

     negative rho (up, down):  0.000E+00 4.241E-06

     total cpu time spent up to now is        8.3 secs

     total energy              =    -864.45592987 Ry
     estimated scf accuracy    <       0.00002547 Ry

     total magnetization       =     9.67 Bohr mag/cell
     absolute magnetization    =    10.01 Bohr mag/cell
[tb_dev] Currently allocated     2.39E+00 Mbytes, locked:    0 /  10
[tb_pin] Currently allocated     0.00E+00 Mbytes, locked:    0 /   0

     iteration #  2     ecut=    65.00 Ry     beta= 0.20
     Davidson diagonalization with overlap

---- Real-time Memory Report at c_bands before calling an iterative solver
          1190 MiB given to the printing process from OS
           997 MiB allocation reported by mallinfo(arena+hblkhd)
         58384 MiB available memory on the node where the printing process lives
     GPU memory used/free/total (MiB): 1412 / 14868 / 16280
------------------
     ethr =  3.92E-08,  avg # of iterations =  1.8

     negative rho (up, down):  0.000E+00 4.267E-06

     total cpu time spent up to now is       10.9 secs

     total energy              =    -864.45593291 Ry
     estimated scf accuracy    <       0.00003628 Ry

     total magnetization       =     9.66 Bohr mag/cell
     absolute magnetization    =    10.00 Bohr mag/cell
[tb_dev] Currently allocated     2.39E+00 Mbytes, locked:    0 /  10
[tb_pin] Currently allocated     0.00E+00 Mbytes, locked:    0 /   0

     iteration #  3     ecut=    65.00 Ry     beta= 0.20
     Davidson diagonalization with overlap

---- Real-time Memory Report at c_bands before calling an iterative solver
          1193 MiB given to the printing process from OS
           999 MiB allocation reported by mallinfo(arena+hblkhd)
         58383 MiB available memory on the node where the printing process lives
     GPU memory used/free/total (MiB): 1412 / 14868 / 16280
------------------
     ethr =  3.92E-08,  avg # of iterations =  1.0

     negative rho (up, down):  0.000E+00 4.266E-06

     total cpu time spent up to now is       13.2 secs

     total energy              =    -864.45594059 Ry
     estimated scf accuracy    <       0.00002018 Ry

     total magnetization       =     9.66 Bohr mag/cell
     absolute magnetization    =    10.00 Bohr mag/cell
[tb_dev] Currently allocated     2.39E+00 Mbytes, locked:    0 /  10
[tb_pin] Currently allocated     0.00E+00 Mbytes, locked:    0 /   0

     iteration #  4     ecut=    65.00 Ry     beta= 0.20
     Davidson diagonalization with overlap

---- Real-time Memory Report at c_bands before calling an iterative solver
          1196 MiB given to the printing process from OS
          1000 MiB allocation reported by mallinfo(arena+hblkhd)
         58383 MiB available memory on the node where the printing process lives
     GPU memory used/free/total (MiB): 1412 / 14868 / 16280
------------------
     ethr =  3.10E-08,  avg # of iterations =  1.0

     negative rho (up, down):  0.000E+00 4.265E-06

     total cpu time spent up to now is       15.5 secs

     total energy              =    -864.45592814 Ry
     estimated scf accuracy    <       0.00002150 Ry

     total magnetization       =     9.64 Bohr mag/cell
     absolute magnetization    =     9.98 Bohr mag/cell
[tb_dev] Currently allocated     2.39E+00 Mbytes, locked:    0 /  10
[tb_pin] Currently allocated     0.00E+00 Mbytes, locked:    0 /   0

     iteration #  5     ecut=    65.00 Ry     beta= 0.20
     Davidson diagonalization with overlap

---- Real-time Memory Report at c_bands before calling an iterative solver
          1197 MiB given to the printing process from OS
          1003 MiB allocation reported by mallinfo(arena+hblkhd)
         58381 MiB available memory on the node where the printing process lives
     GPU memory used/free/total (MiB): 1412 / 14868 / 16280
------------------
     ethr =  3.10E-08,  avg # of iterations =  1.0

     negative rho (up, down):  0.000E+00 4.193E-06

     total cpu time spent up to now is       17.8 secs

     total energy              =    -864.45592925 Ry
     estimated scf accuracy    <       0.00002143 Ry

     total magnetization       =     9.66 Bohr mag/cell
     absolute magnetization    =    10.00 Bohr mag/cell
[tb_dev] Currently allocated     2.39E+00 Mbytes, locked:    0 /  10
[tb_pin] Currently allocated     0.00E+00 Mbytes, locked:    0 /   0

     iteration #  6     ecut=    65.00 Ry     beta= 0.20
     Davidson diagonalization with overlap

---- Real-time Memory Report at c_bands before calling an iterative solver
          1200 MiB given to the printing process from OS
          1005 MiB allocation reported by mallinfo(arena+hblkhd)
         58381 MiB available memory on the node where the printing process lives
     GPU memory used/free/total (MiB): 1412 / 14868 / 16280
------------------
     ethr =  3.10E-08,  avg # of iterations =  4.3

     negative rho (up, down):  0.000E+00 4.132E-06

     total cpu time spent up to now is       22.0 secs

     total energy              =    -864.45601333 Ry
     estimated scf accuracy    <       0.00003886 Ry

     total magnetization       =     9.56 Bohr mag/cell
     absolute magnetization    =     9.90 Bohr mag/cell
[tb_dev] Currently allocated     2.39E+00 Mbytes, locked:    0 /  10
[tb_pin] Currently allocated     0.00E+00 Mbytes, locked:    0 /   0

     iteration #  7     ecut=    65.00 Ry     beta= 0.20
     Davidson diagonalization with overlap

---- Real-time Memory Report at c_bands before calling an iterative solver
          1203 MiB given to the printing process from OS
          1008 MiB allocation reported by mallinfo(arena+hblkhd)
         58379 MiB available memory on the node where the printing process lives
     GPU memory used/free/total (MiB): 1476 / 14804 / 16280
------------------
     ethr =  3.10E-08,  avg # of iterations =  2.9

     negative rho (up, down):  0.000E+00 4.496E-06

     total cpu time spent up to now is       25.2 secs

     total energy              =    -864.45557241 Ry
     estimated scf accuracy    <       0.00003884 Ry

     total magnetization       =     9.51 Bohr mag/cell
     absolute magnetization    =     9.85 Bohr mag/cell
[tb_dev] Currently allocated     2.39E+00 Mbytes, locked:    0 /  10
[tb_pin] Currently allocated     0.00E+00 Mbytes, locked:    0 /   0

     iteration #  8     ecut=    65.00 Ry     beta= 0.20
     Davidson diagonalization with overlap

---- Real-time Memory Report at c_bands before calling an iterative solver
          1205 MiB given to the printing process from OS
          1010 MiB allocation reported by mallinfo(arena+hblkhd)
         58376 MiB available memory on the node where the printing process lives
     GPU memory used/free/total (MiB): 1476 / 14804 / 16280
------------------
     ethr =  3.10E-08,  avg # of iterations =  5.2

     negative rho (up, down):  0.000E+00 5.047E-06

     total cpu time spent up to now is       30.0 secs

     total energy              =    -864.45533918 Ry
     estimated scf accuracy    <       0.00003855 Ry

     total magnetization       =     9.74 Bohr mag/cell
     absolute magnetization    =    10.08 Bohr mag/cell
[tb_dev] Currently allocated     2.39E+00 Mbytes, locked:    0 /  10
[tb_pin] Currently allocated     0.00E+00 Mbytes, locked:    0 /   0

     iteration #  9     ecut=    65.00 Ry     beta= 0.20
     Davidson diagonalization with overlap

---- Real-time Memory Report at c_bands before calling an iterative solver
          1207 MiB given to the printing process from OS
          1011 MiB allocation reported by mallinfo(arena+hblkhd)
         58374 MiB available memory on the node where the printing process lives
     GPU memory used/free/total (MiB): 1490 / 14790 / 16280
------------------
     ethr =  3.10E-08,  avg # of iterations =  5.4

     negative rho (up, down):  0.000E+00 3.874E-06

     total cpu time spent up to now is       35.0 secs

     total energy              =    -864.45472246 Ry
     estimated scf accuracy    <       0.00004002 Ry

     total magnetization       =     9.97 Bohr mag/cell
     absolute magnetization    =    10.32 Bohr mag/cell
[tb_dev] Currently allocated     2.39E+00 Mbytes, locked:    0 /  10
[tb_pin] Currently allocated     0.00E+00 Mbytes, locked:    0 /   0

     iteration # 10     ecut=    65.00 Ry     beta= 0.20
     Davidson diagonalization with overlap

---- Real-time Memory Report at c_bands before calling an iterative solver
          1211 MiB given to the printing process from OS
          1013 MiB allocation reported by mallinfo(arena+hblkhd)
         58373 MiB available memory on the node where the printing process lives
     GPU memory used/free/total (MiB): 1490 / 14790 / 16280
------------------
     ethr =  3.10E-08,  avg # of iterations =  6.4

     negative rho (up, down):  0.000E+00 3.565E-06

     total cpu time spent up to now is       40.8 secs

     total energy              =    -864.45601946 Ry
     estimated scf accuracy    <       0.00003523 Ry

     total magnetization       =     9.51 Bohr mag/cell
     absolute magnetization    =     9.85 Bohr mag/cell
[tb_dev] Currently allocated     2.39E+00 Mbytes, locked:    0 /  10
[tb_pin] Currently allocated     0.00E+00 Mbytes, locked:    0 /   0

     iteration # 11     ecut=    65.00 Ry     beta= 0.20
     Davidson diagonalization with overlap

---- Real-time Memory Report at c_bands before calling an iterative solver
          1213 MiB given to the printing process from OS
          1013 MiB allocation reported by mallinfo(arena+hblkhd)
         58372 MiB available memory on the node where the printing process lives
     GPU memory used/free/total (MiB): 1490 / 14790 / 16280
------------------
     ethr =  3.10E-08,  avg # of iterations =  4.3

     negative rho (up, down):  0.000E+00 4.390E-06

     total cpu time spent up to now is       45.1 secs

     total energy              =    -864.45514645 Ry
     estimated scf accuracy    <       0.00005414 Ry

     total magnetization       =     9.39 Bohr mag/cell
     absolute magnetization    =     9.72 Bohr mag/cell
[tb_dev] Currently allocated     2.39E+00 Mbytes, locked:    0 /  10
[tb_pin] Currently allocated     0.00E+00 Mbytes, locked:    0 /   0

     iteration # 12     ecut=    65.00 Ry     beta= 0.20
     Davidson diagonalization with overlap

---- Real-time Memory Report at c_bands before calling an iterative solver
          1213 MiB given to the printing process from OS
          1013 MiB allocation reported by mallinfo(arena+hblkhd)
         58371 MiB available memory on the node where the printing process lives
     GPU memory used/free/total (MiB): 1490 / 14790 / 16280
------------------
     ethr =  3.10E-08,  avg # of iterations =  5.7

     negative rho (up, down):  0.000E+00 4.924E-06

     total cpu time spent up to now is       50.3 secs

     total energy              =    -864.45552794 Ry
     estimated scf accuracy    <       0.00003181 Ry

     total magnetization       =     9.74 Bohr mag/cell
     absolute magnetization    =    10.08 Bohr mag/cell
[tb_dev] Currently allocated     2.39E+00 Mbytes, locked:    0 /  10
[tb_pin] Currently allocated     0.00E+00 Mbytes, locked:    0 /   0

     iteration # 13     ecut=    65.00 Ry     beta= 0.20
     Davidson diagonalization with overlap

---- Real-time Memory Report at c_bands before calling an iterative solver
          1213 MiB given to the printing process from OS
          1013 MiB allocation reported by mallinfo(arena+hblkhd)
         58372 MiB available memory on the node where the printing process lives
     GPU memory used/free/total (MiB): 1490 / 14790 / 16280
------------------
     ethr =  3.10E-08,  avg # of iterations =  5.0

     negative rho (up, down):  0.000E+00 4.435E-06

     total cpu time spent up to now is       55.0 secs

     total energy              =    -864.45568500 Ry
     estimated scf accuracy    <       0.00004861 Ry

     total magnetization       =     9.92 Bohr mag/cell
     absolute magnetization    =    10.27 Bohr mag/cell
[tb_dev] Currently allocated     2.39E+00 Mbytes, locked:    0 /  10
[tb_pin] Currently allocated     0.00E+00 Mbytes, locked:    0 /   0

     iteration # 14     ecut=    65.00 Ry     beta= 0.20
     Davidson diagonalization with overlap

---- Real-time Memory Report at c_bands before calling an iterative solver
          1213 MiB given to the printing process from OS
          1013 MiB allocation reported by mallinfo(arena+hblkhd)
         58372 MiB available memory on the node where the printing process lives
     GPU memory used/free/total (MiB): 1490 / 14790 / 16280
------------------
     ethr =  3.10E-08,  avg # of iterations =  4.7

     negative rho (up, down):  0.000E+00 3.973E-06

     total cpu time spent up to now is       59.5 secs

     total energy              =    -864.45580894 Ry
     estimated scf accuracy    <       0.00003106 Ry

     total magnetization       =     9.75 Bohr mag/cell
     absolute magnetization    =    10.09 Bohr mag/cell
[tb_dev] Currently allocated     2.39E+00 Mbytes, locked:    0 /  10
[tb_pin] Currently allocated     0.00E+00 Mbytes, locked:    0 /   0

     iteration # 15     ecut=    65.00 Ry     beta= 0.20
     Davidson diagonalization with overlap

---- Real-time Memory Report at c_bands before calling an iterative solver
          1213 MiB given to the printing process from OS
          1013 MiB allocation reported by mallinfo(arena+hblkhd)
         58373 MiB available memory on the node where the printing process lives
     GPU memory used/free/total (MiB): 1490 / 14790 / 16280
------------------
     ethr =  3.10E-08,  avg # of iterations =  4.9

     negative rho (up, down):  0.000E+00 4.364E-06

     total cpu time spent up to now is       64.2 secs

     total energy              =    -864.45581300 Ry
     estimated scf accuracy    <       0.00003287 Ry

     total magnetization       =     9.58 Bohr mag/cell
     absolute magnetization    =     9.92 Bohr mag/cell
[tb_dev] Currently allocated     2.39E+00 Mbytes, locked:    0 /  10
[tb_pin] Currently allocated     0.00E+00 Mbytes, locked:    0 /   0

     iteration # 16     ecut=    65.00 Ry     beta= 0.20
     Davidson diagonalization with overlap

---- Real-time Memory Report at c_bands before calling an iterative solver
          1213 MiB given to the printing process from OS
          1013 MiB allocation reported by mallinfo(arena+hblkhd)
         58373 MiB available memory on the node where the printing process lives
     GPU memory used/free/total (MiB): 1490 / 14790 / 16280
------------------
     ethr =  3.10E-08,  avg # of iterations =  4.1

     negative rho (up, down):  0.000E+00 4.299E-06

     total cpu time spent up to now is       68.4 secs

     total energy              =    -864.45591514 Ry
     estimated scf accuracy    <       0.00003070 Ry

     total magnetization       =     9.71 Bohr mag/cell
     absolute magnetization    =    10.05 Bohr mag/cell
[tb_dev] Currently allocated     2.39E+00 Mbytes, locked:    0 /  10
[tb_pin] Currently allocated     0.00E+00 Mbytes, locked:    0 /   0

     iteration # 17     ecut=    65.00 Ry     beta= 0.20
     Davidson diagonalization with overlap

---- Real-time Memory Report at c_bands before calling an iterative solver
          1213 MiB given to the printing process from OS
          1013 MiB allocation reported by mallinfo(arena+hblkhd)
         58372 MiB available memory on the node where the printing process lives
     GPU memory used/free/total (MiB): 1490 / 14790 / 16280
------------------
     ethr =  3.10E-08,  avg # of iterations =  1.3

     negative rho (up, down):  0.000E+00 4.645E-06

     total cpu time spent up to now is       70.8 secs

     total energy              =    -864.45577482 Ry
     estimated scf accuracy    <       0.00002805 Ry

     total magnetization       =     9.68 Bohr mag/cell
     absolute magnetization    =    10.02 Bohr mag/cell
[tb_dev] Currently allocated     2.39E+00 Mbytes, locked:    0 /  10
[tb_pin] Currently allocated     0.00E+00 Mbytes, locked:    0 /   0

     iteration # 18     ecut=    65.00 Ry     beta= 0.20
     Davidson diagonalization with overlap

---- Real-time Memory Report at c_bands before calling an iterative solver
          1213 MiB given to the printing process from OS
          1013 MiB allocation reported by mallinfo(arena+hblkhd)
         58372 MiB available memory on the node where the printing process lives
     GPU memory used/free/total (MiB): 1490 / 14790 / 16280
------------------
     ethr =  3.10E-08,  avg # of iterations =  4.1

     negative rho (up, down):  0.000E+00 5.302E-06

     total cpu time spent up to now is       75.0 secs

     total energy              =    -864.45539137 Ry
     estimated scf accuracy    <       0.00003055 Ry

     total magnetization       =     9.79 Bohr mag/cell
     absolute magnetization    =    10.14 Bohr mag/cell
[tb_dev] Currently allocated     2.39E+00 Mbytes, locked:    0 /  10
[tb_pin] Currently allocated     0.00E+00 Mbytes, locked:    0 /   0

     iteration # 19     ecut=    65.00 Ry     beta= 0.20
     Davidson diagonalization with overlap

---- Real-time Memory Report at c_bands before calling an iterative solver
          1213 MiB given to the printing process from OS
          1013 MiB allocation reported by mallinfo(arena+hblkhd)
         58372 MiB available memory on the node where the printing process lives
     GPU memory used/free/total (MiB): 1490 / 14790 / 16280
------------------
     ethr =  3.10E-08,  avg # of iterations =  5.2

     negative rho (up, down):  0.000E+00 4.306E-06

     total cpu time spent up to now is       79.9 secs

     total energy              =    -864.45524328 Ry
     estimated scf accuracy    <       0.00005816 Ry

     total magnetization       =    10.00 Bohr mag/cell
     absolute magnetization    =    10.35 Bohr mag/cell
[tb_dev] Currently allocated     2.39E+00 Mbytes, locked:    0 /  10
[tb_pin] Currently allocated     0.00E+00 Mbytes, locked:    0 /   0

     iteration # 20     ecut=    65.00 Ry     beta= 0.20
     Davidson diagonalization with overlap

---- Real-time Memory Report at c_bands before calling an iterative solver
          1213 MiB given to the printing process from OS
          1013 MiB allocation reported by mallinfo(arena+hblkhd)
         58373 MiB available memory on the node where the printing process lives
     GPU memory used/free/total (MiB): 1490 / 14790 / 16280
------------------
     ethr =  3.10E-08,  avg # of iterations =  5.8

     negative rho (up, down):  0.000E+00 2.539E-06

     total cpu time spent up to now is       85.2 secs

     total energy              =    -864.45404991 Ry
     estimated scf accuracy    <       0.00002506 Ry

     total magnetization       =     9.67 Bohr mag/cell
     absolute magnetization    =    10.01 Bohr mag/cell
[tb_dev] Currently allocated     2.39E+00 Mbytes, locked:    0 /  10
[tb_pin] Currently allocated     0.00E+00 Mbytes, locked:    0 /   0

     iteration # 21     ecut=    65.00 Ry     beta= 0.20
     Davidson diagonalization with overlap

---- Real-time Memory Report at c_bands before calling an iterative solver
          1213 MiB given to the printing process from OS
          1013 MiB allocation reported by mallinfo(arena+hblkhd)
         58373 MiB available memory on the node where the printing process lives
     GPU memory used/free/total (MiB): 1490 / 14790 / 16280
------------------
     ethr =  3.10E-08,  avg # of iterations =  7.4

     negative rho (up, down):  0.000E+00 3.454E-06

     total cpu time spent up to now is       91.6 secs

     total energy              =    -864.45538098 Ry
     estimated scf accuracy    <       0.00014633 Ry

     total magnetization       =     9.04 Bohr mag/cell
     absolute magnetization    =     9.37 Bohr mag/cell
[tb_dev] Currently allocated     2.39E+00 Mbytes, locked:    0 /  10
[tb_pin] Currently allocated     0.00E+00 Mbytes, locked:    0 /   0

     iteration # 22     ecut=    65.00 Ry     beta= 0.20
     Davidson diagonalization with overlap

---- Real-time Memory Report at c_bands before calling an iterative solver
          1213 MiB given to the printing process from OS
          1013 MiB allocation reported by mallinfo(arena+hblkhd)
         58373 MiB available memory on the node where the printing process lives
     GPU memory used/free/total (MiB): 1490 / 14790 / 16280
------------------
     ethr =  3.10E-08,  avg # of iterations =  5.7

     negative rho (up, down):  0.000E+00 2.801E-06

     total cpu time spent up to now is       96.8 secs

     total energy              =    -864.45593626 Ry
     estimated scf accuracy    <       0.00005165 Ry

     total magnetization       =     9.39 Bohr mag/cell
     absolute magnetization    =     9.72 Bohr mag/cell
[tb_dev] Currently allocated     2.39E+00 Mbytes, locked:    0 /  10
[tb_pin] Currently allocated     0.00E+00 Mbytes, locked:    0 /   0

     iteration # 23     ecut=    65.00 Ry     beta= 0.20
     Davidson diagonalization with overlap

---- Real-time Memory Report at c_bands before calling an iterative solver
          1213 MiB given to the printing process from OS
          1013 MiB allocation reported by mallinfo(arena+hblkhd)
         58373 MiB available memory on the node where the printing process lives
     GPU memory used/free/total (MiB): 1490 / 14790 / 16280
------------------
     ethr =  3.10E-08,  avg # of iterations =  5.2

     negative rho (up, down):  0.000E+00 4.615E-06

     total cpu time spent up to now is      101.8 secs

     total energy              =    -864.45327757 Ry
     estimated scf accuracy    <       0.00011130 Ry

     total magnetization       =     9.13 Bohr mag/cell
     absolute magnetization    =     9.46 Bohr mag/cell
[tb_dev] Currently allocated     2.39E+00 Mbytes, locked:    0 /  10
[tb_pin] Currently allocated     0.00E+00 Mbytes, locked:    0 /   0

     iteration # 24     ecut=    65.00 Ry     beta= 0.20
     Davidson diagonalization with overlap

---- Real-time Memory Report at c_bands before calling an iterative solver
          1213 MiB given to the printing process from OS
          1013 MiB allocation reported by mallinfo(arena+hblkhd)
         58373 MiB available memory on the node where the printing process lives
     GPU memory used/free/total (MiB): 1490 / 14790 / 16280
------------------
     ethr =  3.10E-08,  avg # of iterations =  7.4

     negative rho (up, down):  0.000E+00 3.085E-06

     total cpu time spent up to now is      108.1 secs

     total energy              =    -864.45441008 Ry
     estimated scf accuracy    <       0.00002923 Ry

     total magnetization       =     9.79 Bohr mag/cell
     absolute magnetization    =    10.13 Bohr mag/cell
[tb_dev] Currently allocated     2.39E+00 Mbytes, locked:    0 /  10
[tb_pin] Currently allocated     0.00E+00 Mbytes, locked:    0 /   0

     iteration # 25     ecut=    65.00 Ry     beta= 0.20
     Davidson diagonalization with overlap

---- Real-time Memory Report at c_bands before calling an iterative solver
          1213 MiB given to the printing process from OS
          1013 MiB allocation reported by mallinfo(arena+hblkhd)
         58373 MiB available memory on the node where the printing process lives
     GPU memory used/free/total (MiB): 1490 / 14790 / 16280
------------------
     ethr =  3.10E-08,  avg # of iterations =  7.0

     negative rho (up, down):  0.000E+00 5.236E-06

     total cpu time spent up to now is      114.3 secs

     total energy              =    -864.45195949 Ry
     estimated scf accuracy    <       0.00007763 Ry

     total magnetization       =     9.22 Bohr mag/cell
     absolute magnetization    =     9.56 Bohr mag/cell
[tb_dev] Currently allocated     2.39E+00 Mbytes, locked:    0 /  10
[tb_pin] Currently allocated     0.00E+00 Mbytes, locked:    0 /   0

     iteration # 26     ecut=    65.00 Ry     beta= 0.20
     Davidson diagonalization with overlap

---- Real-time Memory Report at c_bands before calling an iterative solver
          1213 MiB given to the printing process from OS
          1013 MiB allocation reported by mallinfo(arena+hblkhd)
         58374 MiB available memory on the node where the printing process lives
     GPU memory used/free/total (MiB): 1490 / 14790 / 16280
------------------
     ethr =  3.10E-08,  avg # of iterations =  7.8

     negative rho (up, down):  0.000E+00 6.883E-06

     total cpu time spent up to now is      120.9 secs

     total energy              =    -864.45309178 Ry
     estimated scf accuracy    <       0.00005878 Ry

     total magnetization       =     9.99 Bohr mag/cell
     absolute magnetization    =    10.33 Bohr mag/cell
[tb_dev] Currently allocated     2.39E+00 Mbytes, locked:    0 /  10
[tb_pin] Currently allocated     0.00E+00 Mbytes, locked:    0 /   0

     iteration # 27     ecut=    65.00 Ry     beta= 0.20
     Davidson diagonalization with overlap

---- Real-time Memory Report at c_bands before calling an iterative solver
          1213 MiB given to the printing process from OS
          1013 MiB allocation reported by mallinfo(arena+hblkhd)
         58373 MiB available memory on the node where the printing process lives
     GPU memory used/free/total (MiB): 1490 / 14790 / 16280
------------------
     ethr =  3.10E-08,  avg # of iterations =  7.4

     negative rho (up, down):  0.000E+00 6.193E-06

     total cpu time spent up to now is      127.2 secs

     total energy              =    -864.45503171 Ry
     estimated scf accuracy    <       0.00058081 Ry

     total magnetization       =    10.40 Bohr mag/cell
     absolute magnetization    =    10.76 Bohr mag/cell
[tb_dev] Currently allocated     2.39E+00 Mbytes, locked:    0 /  10
[tb_pin] Currently allocated     0.00E+00 Mbytes, locked:    0 /   0

     iteration # 28     ecut=    65.00 Ry     beta= 0.20
     Davidson diagonalization with overlap

---- Real-time Memory Report at c_bands before calling an iterative solver
          1213 MiB given to the printing process from OS
          1013 MiB allocation reported by mallinfo(arena+hblkhd)
         58374 MiB available memory on the node where the printing process lives
     GPU memory used/free/total (MiB): 1490 / 14790 / 16280
------------------
     ethr =  3.10E-08,  avg # of iterations =  5.2

     negative rho (up, down):  0.000E+00 7.892E-06

     total cpu time spent up to now is      131.9 secs

     total energy              =    -864.45215951 Ry
     estimated scf accuracy    <       0.00024955 Ry

     total magnetization       =    10.25 Bohr mag/cell
     absolute magnetization    =    10.61 Bohr mag/cell
[tb_dev] Currently allocated     2.39E+00 Mbytes, locked:    0 /  10
[tb_pin] Currently allocated     0.00E+00 Mbytes, locked:    0 /   0

     iteration # 29     ecut=    65.00 Ry     beta= 0.20
     Davidson diagonalization with overlap

---- Real-time Memory Report at c_bands before calling an iterative solver
          1213 MiB given to the printing process from OS
          1013 MiB allocation reported by mallinfo(arena+hblkhd)
         58374 MiB available memory on the node where the printing process lives
     GPU memory used/free/total (MiB): 1490 / 14790 / 16280
------------------
     ethr =  3.10E-08,  avg # of iterations =  7.3

     negative rho (up, down):  0.000E+00 4.844E-06

     total cpu time spent up to now is      138.2 secs

     total energy              =    -864.45132722 Ry
     estimated scf accuracy    <       0.00167846 Ry

     total magnetization       =    10.59 Bohr mag/cell
     absolute magnetization    =    10.96 Bohr mag/cell
[tb_dev] Currently allocated     2.39E+00 Mbytes, locked:    0 /  10
[tb_pin] Currently allocated     0.00E+00 Mbytes, locked:    0 /   0

     iteration # 30     ecut=    65.00 Ry     beta= 0.20
     Davidson diagonalization with overlap

---- Real-time Memory Report at c_bands before calling an iterative solver
          1213 MiB given to the printing process from OS
          1013 MiB allocation reported by mallinfo(arena+hblkhd)
         58375 MiB available memory on the node where the printing process lives
     GPU memory used/free/total (MiB): 1490 / 14790 / 16280
------------------
     ethr =  3.10E-08,  avg # of iterations =  8.4

     negative rho (up, down):  0.000E+00 5.178E-06

     total cpu time spent up to now is      145.3 secs

     total energy              =    -864.45563566 Ry
     estimated scf accuracy    <       0.00003521 Ry

     total magnetization       =     9.87 Bohr mag/cell
     absolute magnetization    =    10.22 Bohr mag/cell
[tb_dev] Currently allocated     2.39E+00 Mbytes, locked:    0 /  10
[tb_pin] Currently allocated     0.00E+00 Mbytes, locked:    0 /   0

     iteration # 31     ecut=    65.00 Ry     beta= 0.20
     Davidson diagonalization with overlap

---- Real-time Memory Report at c_bands before calling an iterative solver
          1214 MiB given to the printing process from OS
          1013 MiB allocation reported by mallinfo(arena+hblkhd)
         58375 MiB available memory on the node where the printing process lives
     GPU memory used/free/total (MiB): 1490 / 14790 / 16280
------------------
     ethr =  3.10E-08,  avg # of iterations =  4.3

     negative rho (up, down):  0.000E+00 5.654E-06

     total cpu time spent up to now is      149.5 secs

     total energy              =    -864.45541343 Ry
     estimated scf accuracy    <       0.00005450 Ry

     total magnetization       =     9.98 Bohr mag/cell
     absolute magnetization    =    10.32 Bohr mag/cell
[tb_dev] Currently allocated     2.39E+00 Mbytes, locked:    0 /  10
[tb_pin] Currently allocated     0.00E+00 Mbytes, locked:    0 /   0

     iteration # 32     ecut=    65.00 Ry     beta= 0.20
     Davidson diagonalization with overlap

---- Real-time Memory Report at c_bands before calling an iterative solver
          1214 MiB given to the printing process from OS
          1013 MiB allocation reported by mallinfo(arena+hblkhd)
         58375 MiB available memory on the node where the printing process lives
     GPU memory used/free/total (MiB): 1490 / 14790 / 16280
------------------
     ethr =  3.10E-08,  avg # of iterations =  4.7

     negative rho (up, down):  0.000E+00 5.076E-06

     total cpu time spent up to now is      154.1 secs

     total energy              =    -864.45556593 Ry
     estimated scf accuracy    <       0.00010700 Ry

     total magnetization       =    10.11 Bohr mag/cell
     absolute magnetization    =    10.46 Bohr mag/cell
[tb_dev] Currently allocated     2.39E+00 Mbytes, locked:    0 /  10
[tb_pin] Currently allocated     0.00E+00 Mbytes, locked:    0 /   0

     iteration # 33     ecut=    65.00 Ry     beta= 0.20
     Davidson diagonalization with overlap

---- Real-time Memory Report at c_bands before calling an iterative solver
          1214 MiB given to the printing process from OS
          1013 MiB allocation reported by mallinfo(arena+hblkhd)
         58375 MiB available memory on the node where the printing process lives
     GPU memory used/free/total (MiB): 1490 / 14790 / 16280
------------------
     ethr =  3.10E-08,  avg # of iterations =  4.7

     negative rho (up, down):  0.000E+00 7.401E-06

     total cpu time spent up to now is      158.6 secs

     total energy              =    -864.45142612 Ry
     estimated scf accuracy    <       0.00005189 Ry

     total magnetization       =     9.96 Bohr mag/cell
     absolute magnetization    =    10.31 Bohr mag/cell
[tb_dev] Currently allocated     2.39E+00 Mbytes, locked:    0 /  10
[tb_pin] Currently allocated     0.00E+00 Mbytes, locked:    0 /   0

     iteration # 34     ecut=    65.00 Ry     beta= 0.20
     Davidson diagonalization with overlap

---- Real-time Memory Report at c_bands before calling an iterative solver
          1214 MiB given to the printing process from OS
          1013 MiB allocation reported by mallinfo(arena+hblkhd)
         58375 MiB available memory on the node where the printing process lives
     GPU memory used/free/total (MiB): 1490 / 14790 / 16280
------------------
     ethr =  3.10E-08,  avg # of iterations =  8.0

     negative rho (up, down):  0.000E+00 4.023E-06

     total cpu time spent up to now is      165.3 secs

     total energy              =    -864.44958183 Ry
     estimated scf accuracy    <       0.00100446 Ry

     total magnetization       =    10.49 Bohr mag/cell
     absolute magnetization    =    10.85 Bohr mag/cell
[tb_dev] Currently allocated     2.39E+00 Mbytes, locked:    0 /  10
[tb_pin] Currently allocated     0.00E+00 Mbytes, locked:    0 /   0

     iteration # 35     ecut=    65.00 Ry     beta= 0.20
     Davidson diagonalization with overlap

---- Real-time Memory Report at c_bands before calling an iterative solver
          1214 MiB given to the printing process from OS
          1013 MiB allocation reported by mallinfo(arena+hblkhd)
         58375 MiB available memory on the node where the printing process lives
     GPU memory used/free/total (MiB): 1490 / 14790 / 16280
------------------
     ethr =  3.10E-08,  avg # of iterations =  8.9

     negative rho (up, down):  0.000E+00 2.871E-06

     total cpu time spent up to now is      172.8 secs

     total energy              =    -864.45536161 Ry
     estimated scf accuracy    <       0.00003174 Ry

     total magnetization       =     9.55 Bohr mag/cell
     absolute magnetization    =     9.88 Bohr mag/cell
[tb_dev] Currently allocated     2.39E+00 Mbytes, locked:    0 /  10
[tb_pin] Currently allocated     0.00E+00 Mbytes, locked:    0 /   0

     iteration # 36     ecut=    65.00 Ry     beta= 0.20
     Davidson diagonalization with overlap

---- Real-time Memory Report at c_bands before calling an iterative solver
          1214 MiB given to the printing process from OS
          1013 MiB allocation reported by mallinfo(arena+hblkhd)
         58375 MiB available memory on the node where the printing process lives
     GPU memory used/free/total (MiB): 1490 / 14790 / 16280
------------------
     ethr =  3.10E-08,  avg # of iterations =  6.1

     negative rho (up, down):  0.000E+00 4.496E-06

     total cpu time spent up to now is      178.2 secs

     total energy              =    -864.45357920 Ry
     estimated scf accuracy    <       0.00009458 Ry

     total magnetization       =     9.14 Bohr mag/cell
     absolute magnetization    =     9.47 Bohr mag/cell
[tb_dev] Currently allocated     2.39E+00 Mbytes, locked:    0 /  10
[tb_pin] Currently allocated     0.00E+00 Mbytes, locked:    0 /   0

     iteration # 37     ecut=    65.00 Ry     beta= 0.20
     Davidson diagonalization with overlap

---- Real-time Memory Report at c_bands before calling an iterative solver
          1214 MiB given to the printing process from OS
          1013 MiB allocation reported by mallinfo(arena+hblkhd)
         58375 MiB available memory on the node where the printing process lives
     GPU memory used/free/total (MiB): 1490 / 14790 / 16280
------------------
     ethr =  3.10E-08,  avg # of iterations =  7.2

     negative rho (up, down):  0.000E+00 4.268E-06

     total cpu time spent up to now is      184.7 secs

     total energy              =    -864.45587917 Ry
     estimated scf accuracy    <       0.00002828 Ry

     total magnetization       =     9.76 Bohr mag/cell
     absolute magnetization    =    10.10 Bohr mag/cell
[tb_dev] Currently allocated     2.39E+00 Mbytes, locked:    0 /  10
[tb_pin] Currently allocated     0.00E+00 Mbytes, locked:    0 /   0

     iteration # 38     ecut=    65.00 Ry     beta= 0.20
     Davidson diagonalization with overlap

---- Real-time Memory Report at c_bands before calling an iterative solver
          1214 MiB given to the printing process from OS
          1013 MiB allocation reported by mallinfo(arena+hblkhd)
         58376 MiB available memory on the node where the printing process lives
     GPU memory used/free/total (MiB): 1490 / 14790 / 16280
------------------
     ethr =  3.10E-08,  avg # of iterations =  3.4

     negative rho (up, down):  0.000E+00 4.462E-06

     total cpu time spent up to now is      188.3 secs

     total energy              =    -864.45584373 Ry
     estimated scf accuracy    <       0.00002465 Ry

     total magnetization       =     9.68 Bohr mag/cell
     absolute magnetization    =    10.02 Bohr mag/cell
[tb_dev] Currently allocated     2.39E+00 Mbytes, locked:    0 /  10
[tb_pin] Currently allocated     0.00E+00 Mbytes, locked:    0 /   0

     iteration # 39     ecut=    65.00 Ry     beta= 0.20
     Davidson diagonalization with overlap

---- Real-time Memory Report at c_bands before calling an iterative solver
          1214 MiB given to the printing process from OS
          1013 MiB allocation reported by mallinfo(arena+hblkhd)
         58376 MiB available memory on the node where the printing process lives
     GPU memory used/free/total (MiB): 1490 / 14790 / 16280
------------------
     ethr =  3.10E-08,  avg # of iterations =  3.3

     negative rho (up, down):  0.000E+00 4.273E-06

     total cpu time spent up to now is      191.7 secs

     total energy              =    -864.45589134 Ry
     estimated scf accuracy    <       0.00002922 Ry

     total magnetization       =     9.75 Bohr mag/cell
     absolute magnetization    =    10.09 Bohr mag/cell
[tb_dev] Currently allocated     2.39E+00 Mbytes, locked:    0 /  10
[tb_pin] Currently allocated     0.00E+00 Mbytes, locked:    0 /   0

     iteration # 40     ecut=    65.00 Ry     beta= 0.20
     Davidson diagonalization with overlap

---- Real-time Memory Report at c_bands before calling an iterative solver
          1214 MiB given to the printing process from OS
          1013 MiB allocation reported by mallinfo(arena+hblkhd)
         58376 MiB available memory on the node where the printing process lives
     GPU memory used/free/total (MiB): 1490 / 14790 / 16280
------------------
     ethr =  3.10E-08,  avg # of iterations =  2.8

     negative rho (up, down):  0.000E+00 4.669E-06

     total cpu time spent up to now is      194.8 secs

     total energy              =    -864.45570792 Ry
     estimated scf accuracy    <       0.00002641 Ry

     total magnetization       =     9.70 Bohr mag/cell
     absolute magnetization    =    10.04 Bohr mag/cell
[tb_dev] Currently allocated     2.39E+00 Mbytes, locked:    0 /  10
[tb_pin] Currently allocated     0.00E+00 Mbytes, locked:    0 /   0

     iteration # 41     ecut=    65.00 Ry     beta= 0.20
     Davidson diagonalization with overlap

---- Real-time Memory Report at c_bands before calling an iterative solver
          1214 MiB given to the printing process from OS
          1013 MiB allocation reported by mallinfo(arena+hblkhd)
         58376 MiB available memory on the node where the printing process lives
     GPU memory used/free/total (MiB): 1490 / 14790 / 16280
------------------
     ethr =  3.10E-08,  avg # of iterations =  4.4

     negative rho (up, down):  0.000E+00 5.515E-06

     total cpu time spent up to now is      199.1 secs

     total energy              =    -864.45504572 Ry
     estimated scf accuracy    <       0.00003457 Ry

     total magnetization       =     9.83 Bohr mag/cell
     absolute magnetization    =    10.18 Bohr mag/cell
[tb_dev] Currently allocated     2.39E+00 Mbytes, locked:    0 /  10
[tb_pin] Currently allocated     0.00E+00 Mbytes, locked:    0 /   0

     iteration # 42     ecut=    65.00 Ry     beta= 0.20
     Davidson diagonalization with overlap

---- Real-time Memory Report at c_bands before calling an iterative solver
          1214 MiB given to the printing process from OS
          1013 MiB allocation reported by mallinfo(arena+hblkhd)
         58375 MiB available memory on the node where the printing process lives
     GPU memory used/free/total (MiB): 1490 / 14790 / 16280
------------------
     ethr =  3.10E-08,  avg # of iterations =  5.6

     negative rho (up, down):  0.000E+00 4.972E-06

     total cpu time spent up to now is      204.3 secs

     total energy              =    -864.45554740 Ry
     estimated scf accuracy    <       0.00010510 Ry

     total magnetization       =    10.10 Bohr mag/cell
     absolute magnetization    =    10.45 Bohr mag/cell
[tb_dev] Currently allocated     2.39E+00 Mbytes, locked:    0 /  10
[tb_pin] Currently allocated     0.00E+00 Mbytes, locked:    0 /   0

     iteration # 43     ecut=    65.00 Ry     beta= 0.20
     Davidson diagonalization with overlap

---- Real-time Memory Report at c_bands before calling an iterative solver
          1214 MiB given to the printing process from OS
          1013 MiB allocation reported by mallinfo(arena+hblkhd)
         58375 MiB available memory on the node where the printing process lives
     GPU memory used/free/total (MiB): 1490 / 14790 / 16280
------------------
     ethr =  3.10E-08,  avg # of iterations =  4.9

     negative rho (up, down):  0.000E+00 4.198E-06

     total cpu time spent up to now is      208.9 secs

     total energy              =    -864.45544791 Ry
     estimated scf accuracy    <       0.00004438 Ry

     total magnetization       =     9.93 Bohr mag/cell
     absolute magnetization    =    10.28 Bohr mag/cell
[tb_dev] Currently allocated     2.39E+00 Mbytes, locked:    0 /  10
[tb_pin] Currently allocated     0.00E+00 Mbytes, locked:    0 /   0

     iteration # 44     ecut=    65.00 Ry     beta= 0.20
     Davidson diagonalization with overlap

---- Real-time Memory Report at c_bands before calling an iterative solver
          1214 MiB given to the printing process from OS
          1013 MiB allocation reported by mallinfo(arena+hblkhd)
         58376 MiB available memory on the node where the printing process lives
     GPU memory used/free/total (MiB): 1490 / 14790 / 16280
------------------
     ethr =  3.10E-08,  avg # of iterations =  5.6

     negative rho (up, down):  0.000E+00 3.922E-06

     total cpu time spent up to now is      214.2 secs

     total energy              =    -864.45593345 Ry
     estimated scf accuracy    <       0.00002669 Ry

     total magnetization       =     9.65 Bohr mag/cell
     absolute magnetization    =     9.99 Bohr mag/cell
[tb_dev] Currently allocated     2.39E+00 Mbytes, locked:    0 /  10
[tb_pin] Currently allocated     0.00E+00 Mbytes, locked:    0 /   0

     iteration # 45     ecut=    65.00 Ry     beta= 0.20
     Davidson diagonalization with overlap

---- Real-time Memory Report at c_bands before calling an iterative solver
          1214 MiB given to the printing process from OS
          1013 MiB allocation reported by mallinfo(arena+hblkhd)
         58376 MiB available memory on the node where the printing process lives
     GPU memory used/free/total (MiB): 1490 / 14790 / 16280
------------------
     ethr =  3.10E-08,  avg # of iterations =  4.1

     negative rho (up, down):  0.000E+00 3.153E-06

     total cpu time spent up to now is      218.3 secs

     total energy              =    -864.45567756 Ry
     estimated scf accuracy    <       0.00003056 Ry

     total magnetization       =     9.55 Bohr mag/cell
[...]
          1214 MiB given to the printing process from OS
          1013 MiB allocation reported by mallinfo(arena+hblkhd)
         58377 MiB available memory on the node where the printing process lives
     GPU memory used/free/total (MiB): 1490 / 14790 / 16280
------------------
     ethr =  3.10E-08,  avg # of iterations =  8.1

     negative rho (up, down):  0.000E+00 3.307E-06

     total cpu time spent up to now is      320.7 secs

     total energy              =    -864.45592801 Ry
     estimated scf accuracy    <       0.00003500 Ry

     total magnetization       =     9.48 Bohr mag/cell
     absolute magnetization    =     9.82 Bohr mag/cell
[tb_dev] Currently allocated     2.39E+00 Mbytes, locked:    0 /  10
[tb_pin] Currently allocated     0.00E+00 Mbytes, locked:    0 /   0

     iteration # 66     ecut=    65.00 Ry     beta= 0.20
     Davidson diagonalization with overlap

---- Real-time Memory Report at c_bands before calling an iterative solver
          1214 MiB given to the printing process from OS
          1013 MiB allocation reported by mallinfo(arena+hblkhd)
         58376 MiB available memory on the node where the printing process lives
     GPU memory used/free/total (MiB): 1490 / 14790 / 16280
------------------
     ethr =  3.10E-08,  avg # of iterations =  5.1

     negative rho (up, down):  0.000E+00 3.584E-06

     total cpu time spent up to now is      325.5 secs

     total energy              =    -864.45601674 Ry
     estimated scf accuracy    <       0.00006224 Ry

     total magnetization       =     9.27 Bohr mag/cell
     absolute magnetization    =     9.60 Bohr mag/cell
[tb_dev] Currently allocated     2.39E+00 Mbytes, locked:    0 /  10
[tb_pin] Currently allocated     0.00E+00 Mbytes, locked:    0 /   0

     iteration # 67     ecut=    65.00 Ry     beta= 0.20
     Davidson diagonalization with overlap

---- Real-time Memory Report at c_bands before calling an iterative solver
          1214 MiB given to the printing process from OS
          1013 MiB allocation reported by mallinfo(arena+hblkhd)
         58377 MiB available memory on the node where the printing process lives
     GPU memory used/free/total (MiB): 1490 / 14790 / 16280
------------------
     ethr =  3.10E-08,  avg # of iterations =  4.1

     negative rho (up, down):  0.000E+00 4.334E-06

     total cpu time spent up to now is      329.7 secs

     total energy              =    -864.45526250 Ry
     estimated scf accuracy    <       0.00004663 Ry

     total magnetization       =     9.39 Bohr mag/cell
     absolute magnetization    =     9.72 Bohr mag/cell
[tb_dev] Currently allocated     2.39E+00 Mbytes, locked:    0 /  10
[tb_pin] Currently allocated     0.00E+00 Mbytes, locked:    0 /   0

     iteration # 68     ecut=    65.00 Ry     beta= 0.20
     Davidson diagonalization with overlap

---- Real-time Memory Report at c_bands before calling an iterative solver
          1214 MiB given to the printing process from OS
          1013 MiB allocation reported by mallinfo(arena+hblkhd)
         58376 MiB available memory on the node where the printing process lives
     GPU memory used/free/total (MiB): 1490 / 14790 / 16280
------------------
     ethr =  3.10E-08,  avg # of iterations =  5.7

     negative rho (up, down):  0.000E+00 3.675E-06

     total cpu time spent up to now is      334.9 secs

     total energy              =    -864.45564839 Ry
     estimated scf accuracy    <       0.00002868 Ry

     total magnetization       =     9.72 Bohr mag/cell
     absolute magnetization    =    10.05 Bohr mag/cell
[tb_dev] Currently allocated     2.39E+00 Mbytes, locked:    0 /  10
[tb_pin] Currently allocated     0.00E+00 Mbytes, locked:    0 /   0

     iteration # 69     ecut=    65.00 Ry     beta= 0.20
     Davidson diagonalization with overlap

---- Real-time Memory Report at c_bands before calling an iterative solver
          1214 MiB given to the printing process from OS
          1013 MiB allocation reported by mallinfo(arena+hblkhd)
         58376 MiB available memory on the node where the printing process lives
     GPU memory used/free/total (MiB): 1490 / 14790 / 16280
------------------
     ethr =  3.10E-08,  avg # of iterations =  5.2

     negative rho (up, down):  0.000E+00 4.133E-06

     total cpu time spent up to now is      339.8 secs

     total energy              =    -864.45572614 Ry
     estimated scf accuracy    <       0.00003987 Ry

     total magnetization       =     9.45 Bohr mag/cell
     absolute magnetization    =     9.78 Bohr mag/cell
[tb_dev] Currently allocated     2.39E+00 Mbytes, locked:    0 /  10
[tb_pin] Currently allocated     0.00E+00 Mbytes, locked:    0 /   0

     iteration # 70     ecut=    65.00 Ry     beta= 0.20
     Davidson diagonalization with overlap

---- Real-time Memory Report at c_bands before calling an iterative solver
          1214 MiB given to the printing process from OS
          1013 MiB allocation reported by mallinfo(arena+hblkhd)
         58376 MiB available memory on the node where the printing process lives
     GPU memory used/free/total (MiB): 1490 / 14790 / 16280
------------------
     ethr =  3.10E-08,  avg # of iterations =  4.8

     negative rho (up, down):  0.000E+00 4.598E-06

     total cpu time spent up to now is      344.6 secs

     total energy              =    -864.45561942 Ry
     estimated scf accuracy    <       0.00002947 Ry

     total magnetization       =     9.64 Bohr mag/cell
     absolute magnetization    =     9.98 Bohr mag/cell
[tb_dev] Currently allocated     2.39E+00 Mbytes, locked:    0 /  10
[tb_pin] Currently allocated     0.00E+00 Mbytes, locked:    0 /   0

     iteration # 71     ecut=    65.00 Ry     beta= 0.20
     Davidson diagonalization with overlap

---- Real-time Memory Report at c_bands before calling an iterative solver
          1214 MiB given to the printing process from OS
          1013 MiB allocation reported by mallinfo(arena+hblkhd)
         58376 MiB available memory on the node where the printing process lives
     GPU memory used/free/total (MiB): 1490 / 14790 / 16280
------------------
     ethr =  3.10E-08,  avg # of iterations =  5.1

     negative rho (up, down):  0.000E+00 3.988E-06

     total cpu time spent up to now is      349.3 secs

     total energy              =    -864.45564271 Ry
     estimated scf accuracy    <       0.00003556 Ry

     total magnetization       =     9.82 Bohr mag/cell
     absolute magnetization    =    10.17 Bohr mag/cell
[tb_dev] Currently allocated     2.39E+00 Mbytes, locked:    0 /  10
[tb_pin] Currently allocated     0.00E+00 Mbytes, locked:    0 /   0

     iteration # 72     ecut=    65.00 Ry     beta= 0.20
     Davidson diagonalization with overlap

---- Real-time Memory Report at c_bands before calling an iterative solver
          1214 MiB given to the printing process from OS
          1013 MiB allocation reported by mallinfo(arena+hblkhd)
         58376 MiB available memory on the node where the printing process lives
     GPU memory used/free/total (MiB): 1490 / 14790 / 16280
------------------
     ethr =  3.10E-08,  avg # of iterations =  5.1

     negative rho (up, down):  0.000E+00 5.028E-06

     total cpu time spent up to now is      354.2 secs

     total energy              =    -864.45483312 Ry
     estimated scf accuracy    <       0.00003036 Ry

     total magnetization       =     9.59 Bohr mag/cell
     absolute magnetization    =     9.93 Bohr mag/cell
[tb_dev] Currently allocated     2.39E+00 Mbytes, locked:    0 /  10
[tb_pin] Currently allocated     0.00E+00 Mbytes, locked:    0 /   0

     iteration # 73     ecut=    65.00 Ry     beta= 0.20
     Davidson diagonalization with overlap

---- Real-time Memory Report at c_bands before calling an iterative solver
          1214 MiB given to the printing process from OS
          1013 MiB allocation reported by mallinfo(arena+hblkhd)
         58375 MiB available memory on the node where the printing process lives
     GPU memory used/free/total (MiB): 1490 / 14790 / 16280
------------------
     ethr =  3.10E-08,  avg # of iterations =  5.9

     negative rho (up, down):  0.000E+00 4.683E-06

     total cpu time spent up to now is      359.6 secs

     total energy              =    -864.45574563 Ry
     estimated scf accuracy    <       0.00005396 Ry

     total magnetization       =     9.96 Bohr mag/cell
     absolute magnetization    =    10.30 Bohr mag/cell
[tb_dev] Currently allocated     2.39E+00 Mbytes, locked:    0 /  10
[tb_pin] Currently allocated     0.00E+00 Mbytes, locked:    0 /   0

     iteration # 74     ecut=    65.00 Ry     beta= 0.20
     Davidson diagonalization with overlap

---- Real-time Memory Report at c_bands before calling an iterative solver
          1214 MiB given to the printing process from OS
          1013 MiB allocation reported by mallinfo(arena+hblkhd)
         58376 MiB available memory on the node where the printing process lives
     GPU memory used/free/total (MiB): 1490 / 14790 / 16280
------------------
     ethr =  3.10E-08,  avg # of iterations =  3.9

     negative rho (up, down):  0.000E+00 4.360E-06

     total cpu time spent up to now is      363.5 secs

     total energy              =    -864.45579939 Ry
     estimated scf accuracy    <       0.00003844 Ry

     total magnetization       =     9.87 Bohr mag/cell
     absolute magnetization    =    10.21 Bohr mag/cell
[tb_dev] Currently allocated     2.39E+00 Mbytes, locked:    0 /  10
[tb_pin] Currently allocated     0.00E+00 Mbytes, locked:    0 /   0

     iteration # 75     ecut=    65.00 Ry     beta= 0.20
     Davidson diagonalization with overlap

---- Real-time Memory Report at c_bands before calling an iterative solver
          1214 MiB given to the printing process from OS
          1013 MiB allocation reported by mallinfo(arena+hblkhd)
         58377 MiB available memory on the node where the printing process lives
     GPU memory used/free/total (MiB): 1490 / 14790 / 16280
------------------
     ethr =  3.10E-08,  avg # of iterations =  4.2

     negative rho (up, down):  0.000E+00 4.204E-06

     total cpu time spent up to now is      367.8 secs

     total energy              =    -864.45587503 Ry
     estimated scf accuracy    <       0.00003349 Ry

     total magnetization       =     9.77 Bohr mag/cell
     absolute magnetization    =    10.11 Bohr mag/cell
[tb_dev] Currently allocated     2.39E+00 Mbytes, locked:    0 /  10
[tb_pin] Currently allocated     0.00E+00 Mbytes, locked:    0 /   0

     iteration # 76     ecut=    65.00 Ry     beta= 0.20
     Davidson diagonalization with overlap

---- Real-time Memory Report at c_bands before calling an iterative solver
          1214 MiB given to the printing process from OS
          1013 MiB allocation reported by mallinfo(arena+hblkhd)
         58375 MiB available memory on the node where the printing process lives
     GPU memory used/free/total (MiB): 1490 / 14790 / 16280
------------------
     ethr =  3.10E-08,  avg # of iterations =  3.8

     negative rho (up, down):  0.000E+00 4.425E-06

     total cpu time spent up to now is      371.6 secs

     total energy              =    -864.45583611 Ry
     estimated scf accuracy    <       0.00002720 Ry

     total magnetization       =     9.68 Bohr mag/cell
     absolute magnetization    =    10.02 Bohr mag/cell
[tb_dev] Currently allocated     2.39E+00 Mbytes, locked:    0 /  10
[tb_pin] Currently allocated     0.00E+00 Mbytes, locked:    0 /   0

     iteration # 77     ecut=    65.00 Ry     beta= 0.20
     Davidson diagonalization with overlap

---- Real-time Memory Report at c_bands before calling an iterative solver
          1214 MiB given to the printing process from OS
          1013 MiB allocation reported by mallinfo(arena+hblkhd)
         58376 MiB available memory on the node where the printing process lives
     GPU memory used/free/total (MiB): 1490 / 14790 / 16280
------------------
     ethr =  3.10E-08,  avg # of iterations =  3.5

     negative rho (up, down):  0.000E+00 3.776E-06

     total cpu time spent up to now is      375.2 secs

     total energy              =    -864.45566031 Ry
     estimated scf accuracy    <       0.00003277 Ry

     total magnetization       =     9.76 Bohr mag/cell
     absolute magnetization    =    10.10 Bohr mag/cell
[tb_dev] Currently allocated     2.39E+00 Mbytes, locked:    0 /  10
[tb_pin] Currently allocated     0.00E+00 Mbytes, locked:    0 /   0

     iteration # 78     ecut=    65.00 Ry     beta= 0.20
     Davidson diagonalization with overlap

---- Real-time Memory Report at c_bands before calling an iterative solver
          1214 MiB given to the printing process from OS
          1013 MiB allocation reported by mallinfo(arena+hblkhd)
         58376 MiB available memory on the node where the printing process lives
     GPU memory used/free/total (MiB): 1490 / 14790 / 16280
------------------
     ethr =  3.10E-08,  avg # of iterations =  5.2

     negative rho (up, down):  0.000E+00 3.254E-06

     total cpu time spent up to now is      380.0 secs

     total energy              =    -864.45589583 Ry
     estimated scf accuracy    <       0.00003653 Ry

     total magnetization       =     9.51 Bohr mag/cell
     absolute magnetization    =     9.85 Bohr mag/cell
[tb_dev] Currently allocated     2.39E+00 Mbytes, locked:    0 /  10
[tb_pin] Currently allocated     0.00E+00 Mbytes, locked:    0 /   0

     iteration # 79     ecut=    65.00 Ry     beta= 0.20
     Davidson diagonalization with overlap

---- Real-time Memory Report at c_bands before calling an iterative solver
          1214 MiB given to the printing process from OS
          1013 MiB allocation reported by mallinfo(arena+hblkhd)
         58377 MiB available memory on the node where the printing process lives
     GPU memory used/free/total (MiB): 1490 / 14790 / 16280
------------------
     ethr =  3.10E-08,  avg # of iterations =  5.0

     negative rho (up, down):  0.000E+00 4.050E-06

     total cpu time spent up to now is      384.7 secs

     total energy              =    -864.45521613 Ry
     estimated scf accuracy    <       0.00006330 Ry

     total magnetization       =     9.29 Bohr mag/cell
     absolute magnetization    =     9.62 Bohr mag/cell
[tb_dev] Currently allocated     2.39E+00 Mbytes, locked:    0 /  10
[tb_pin] Currently allocated     0.00E+00 Mbytes, locked:    0 /   0

     iteration # 80     ecut=    65.00 Ry     beta= 0.20
     Davidson diagonalization with overlap

---- Real-time Memory Report at c_bands before calling an iterative solver
          1214 MiB given to the printing process from OS
          1013 MiB allocation reported by mallinfo(arena+hblkhd)
         58376 MiB available memory on the node where the printing process lives
     GPU memory used/free/total (MiB): 1490 / 14790 / 16280
------------------
     ethr =  3.10E-08,  avg # of iterations =  5.7

     negative rho (up, down):  0.000E+00 3.798E-06

     total cpu time spent up to now is      390.0 secs

     total energy              =    -864.45595188 Ry
     estimated scf accuracy    <       0.00003276 Ry

     total magnetization       =     9.64 Bohr mag/cell
     absolute magnetization    =     9.98 Bohr mag/cell

     End of self-consistent calculation

     convergence NOT achieved after  80 iterations: stopping

     Writing config to output data dir ./out/aiida.save/
 
     init_run     :     10.05s CPU      2.15s WALL (       1 calls)
     electrons    :    541.91s CPU    387.39s WALL (       1 calls)

     Called by init_run:
     wfcinit      :      0.29s CPU      0.29s WALL (       1 calls)
                                        0.29s GPU  (       1 calls)
     potinit      :      0.31s CPU      0.14s WALL (       1 calls)
     hinit0       :      7.12s CPU      1.12s WALL (       1 calls)

     Called by electrons:
     c_bands      :    432.22s CPU    346.78s WALL (      81 calls)
     sum_band     :     28.78s CPU     32.98s WALL (      81 calls)
     v_of_rho     :     24.90s CPU      2.28s WALL (      81 calls)
     v_h          :      3.54s CPU      0.32s WALL (      81 calls)
     v_xc         :     21.36s CPU      1.96s WALL (      81 calls)
     newd         :     30.87s CPU      3.13s WALL (      81 calls)
                                        3.13s GPU  (      81 calls)
     mix_rho      :     16.87s CPU      1.63s WALL (      81 calls)

     Called by c_bands:
     init_us_2    :     19.14s CPU     17.48s WALL (   18144 calls)
     init_us_2:gp :     18.76s CPU     17.17s WALL (   18144 calls)
     cegterg      :    393.75s CPU    318.17s WALL (    9072 calls)

     Called by sum_band:
     sum_band:wei :      0.37s CPU      0.37s WALL (      81 calls)
                                        0.37s GPU  (      81 calls)
     sum_band:loo :     24.54s CPU     28.61s WALL (      81 calls)
                                       28.61s GPU  (      81 calls)
     sum_band:buf :      5.27s CPU      6.11s WALL (    9072 calls)
                                        6.05s GPU  (    9072 calls)
     sum_band:ini :      6.99s CPU      8.53s WALL (    9072 calls)
                                        8.48s GPU  (    9072 calls)
     sum_band:cal :      0.28s CPU      0.81s WALL (    9072 calls)
                                        0.72s GPU  (    9072 calls)
     sum_band:bec :      1.33s CPU      1.64s WALL (    9072 calls)
                                        1.58s GPU  (    9072 calls)
     addusdens    :      2.35s CPU      2.44s WALL (      81 calls)
                                        2.44s GPU  (      81 calls)
     addusd:skk   :      0.02s CPU      0.02s WALL (     162 calls)
                                        0.02s GPU  (     162 calls)

     Called by *egterg:
     cdiaghg      :    208.91s CPU    175.70s WALL (   54459 calls)
                                      175.34s GPU  (   54459 calls)
     cegterg:over :      8.18s CPU      6.53s WALL (   45611 calls)
     cegterg:upda :     20.83s CPU     16.39s WALL (   45611 calls)
     cegterg:last :      6.02s CPU      4.81s WALL (   27072 calls)
     h_psi        :    119.67s CPU     92.42s WALL (   54683 calls)
                                       92.10s GPU  (   54683 calls)
     s_psi        :      6.62s CPU      8.21s WALL (   54683 calls)
                                        7.65s GPU  (   54683 calls)
     g_psi        :      0.42s CPU      1.09s WALL (   45611 calls)
                                        0.80s GPU  (   45611 calls)

     Called by h_psi:
     h_psi:calbec :      2.39s CPU      4.88s WALL (   54683 calls)
                                        4.56s GPU  (   54683 calls)
     vloc_psi     :     96.43s CPU     74.89s WALL (   54683 calls)
                                       74.57s GPU  (   54683 calls)
     add_vuspsi   :      9.36s CPU      9.18s WALL (   54683 calls)
                                        8.86s GPU  (   54683 calls)

     General routines
     calbec       :      2.02s CPU      1.63s WALL (   63755 calls)
     fft          :      2.89s CPU      0.48s WALL (    2025 calls)
                                        0.36s GPU  (    1863 calls)
     ffts         :      0.23s CPU      0.04s WALL (     324 calls)
                                        0.01s GPU  (     162 calls)
     fftw         :      6.10s CPU     47.98s WALL (  238442 calls)
                                       46.66s GPU  (  238442 calls)
     interpolate  :      3.15s CPU      0.29s WALL (     162 calls)
     davcio       :      0.97s CPU      0.47s WALL (     242 calls)
 
     Parallel routines
 
     PWSCF        :   9m15.45s CPU   6m30.36s WALL

 
   This run was terminated on:  21:56:59  23Oct2023            

=------------------------------------------------------------------------------=
   JOB DONE.
=------------------------------------------------------------------------------=
