
     Program PWSCF v.7.2 starts on 29Nov2023 at 20:28: 9 
        Git branch: develop
        Last git commit: 9055681be6fc8200e6fffe76ed5fda34c2696339
        Last git commit date: Wed Nov 8 16:29:39 2023 +0000
        Last git commit subject: Merge branch 'calbec_fix' into 'develop'

     This program is part of the open-source Quantum ESPRESSO suite
     for quantum simulation of materials; please cite
         "P. Giannozzi et al., J. Phys.:Condens. Matter 21 395502 (2009);
         "P. Giannozzi et al., J. Phys.:Condens. Matter 29 465901 (2017);
         "P. Giannozzi et al., J. Chem. Phys. 152 154105 (2020);
          URL http://www.quantum-espresso.org", 
     in publications or presentations arising from this work. More details at
     http://www.quantum-espresso.org/quote

     Parallel version (MPI), running on    56 processors

     MPI processes distributed on     1 nodes
     487048 MiB available memory on the printing compute node when the environment starts

     Reading input from aiida.in

     Current dimensions of program PWSCF are:
     Max number of different atomic species (ntypx) = 10
     Max number of k-points (npk) =  40000
     Max angular momentum in pseudopotentials (lmaxx) =  4
     Message from routine setup:
     using ibrav=0 with symmetry is DISCOURAGED, use correct ibrav instead

     K-points division:     npool     =       7
     R & G space division:  proc/nbgrp/npool/nimage =       8
     Subspace diagonalization in iterative solution of the eigenvalue problem:
     a serial algorithm will be used


     Parallelization info
     --------------------
     sticks:   dense  smooth     PW     G-vecs:    dense   smooth      PW
     Min         191      96     30                 4961     1769     302
     Max         192      97     31                 4964     1771     304
     Sum        1531     769    241                39693    14163    2421

     Using Slab Decomposition



     bravais-lattice index     =            0
     lattice parameter (alat)  =       8.3515  a.u.
     unit-cell volume          =     411.8857 (a.u.)^3
     number of atoms/cell      =            4
     number of atomic types    =            4
     number of electrons       =        42.00
     number of Kohn-Sham states=           25
     kinetic-energy cutoff     =      40.0000  Ry
     charge density cutoff     =     320.0000  Ry
     scf convergence threshold =      8.0E-10
     mixing beta               =       0.4000
     number of iterations used =            8  plain     mixing
     Exchange-correlation= SLA  PW   PSX  PSC
                           (   1   4  10   8   0   0   0)

     celldm(1)=   8.351488  celldm(2)=   0.000000  celldm(3)=   0.000000
     celldm(4)=   0.000000  celldm(5)=   0.000000  celldm(6)=   0.000000

     crystal axes: (cart. coord. in units of alat)
               a(1) = (   0.000000   0.707107   0.707107 )  
               a(2) = (   0.707107   0.000000   0.707107 )  
               a(3) = (   0.707107   0.707107   0.000000 )  

     reciprocal axes: (cart. coord. in units 2 pi/alat)
               b(1) = ( -0.707107  0.707107  0.707107 )  
               b(2) = (  0.707107 -0.707107  0.707107 )  
               b(3) = (  0.707107  0.707107 -0.707107 )  


     PseudoPot. # 1 for Cr read from file:
     ./pseudo/cr_pbesol_v1.5.uspp.F.UPF
     MD5 check sum: a621641e0be27168676a837af8893d0f
     Pseudo is Ultrasoft + core correction, Zval = 14.0
     Generated by new atomic code, or converted to UPF format
     Using radial grid of  857 points,  6 beta functions with: 
                l(1) =   0
                l(2) =   0
                l(3) =   1
                l(4) =   1
                l(5) =   2
                l(6) =   2
     Q(r) pseudized with  8 coefficients,  rinner =    0.950   0.950   0.950
                                                       0.950   0.950

     PseudoPot. # 2 for Si read from file:
     ./pseudo/Si.pbesol-n-rrkjus_psl.1.0.0.UPF
     MD5 check sum: c4212819de858c94c3a1644338846ac9
     Pseudo is Ultrasoft + core correction, Zval =  4.0
     Generated using "atomic" code by A. Dal Corso  v.6.0 svn rev. 13079
     Using radial grid of 1141 points,  6 beta functions with: 
                l(1) =   0
                l(2) =   0
                l(3) =   1
                l(4) =   1
                l(5) =   2
                l(6) =   2
     Q(r) pseudized with 0 coefficients 


     PseudoPot. # 3 for V  read from file:
     ./pseudo/v_pbesol_v1.4.uspp.F.UPF
     MD5 check sum: 72fa7d0034c41d8adc50bbc8c632b9f9
     Pseudo is Ultrasoft + core correction, Zval = 13.0
     Generated by new atomic code, or converted to UPF format
     Using radial grid of  853 points,  6 beta functions with: 
                l(1) =   0
                l(2) =   0
                l(3) =   1
                l(4) =   1
                l(5) =   2
                l(6) =   2
     Q(r) pseudized with  8 coefficients,  rinner =    1.100   1.100   1.100
                                                       1.100   1.100

     PseudoPot. # 4 for Y  read from file:
     ./pseudo/y_pbesol_v1.4.uspp.F.UPF
     MD5 check sum: dac24993bfd4491f22c7b9129ad9e93d
     Pseudo is Ultrasoft + core correction, Zval = 11.0
     Generated by new atomic code, or converted to UPF format
     Using radial grid of  885 points,  6 beta functions with: 
                l(1) =   0
                l(2) =   0
                l(3) =   1
                l(4) =   1
                l(5) =   2
                l(6) =   2
     Q(r) pseudized with  8 coefficients,  rinner =    1.200   1.200   1.200
                                                       1.200   1.200

     atomic species   valence    mass     pseudopotential
     Cr               14.00    51.99610     Cr( 1.00)
     Si                4.00    28.08550     Si( 1.00)
     V                13.00    50.94150     V ( 1.00)
     Y                11.00    88.90585     Y ( 1.00)

     Starting magnetic structure 
     atomic species   magnetization
     Cr              0.357
     Si              0.100
     V               0.385
     Y               0.455

     24 Sym. Ops. (no inversion) found


                                    s                        frac. trans.

      isym =  1     identity                                     

 cryst.   s( 1) = (     1          0          0      )
                  (     0          1          0      )
                  (     0          0          1      )

 cart.    s( 1) = (  1.0000000 -0.0000000  0.0000000 )
                  ( -0.0000000  1.0000000  0.0000000 )
                  ( -0.0000000  0.0000000  1.0000000 )


      isym =  2     180 deg rotation - cart. axis [0,0,1]        

 cryst.   s( 2) = (     0          1         -1      )
                  (     1          0         -1      )
                  (     0          0         -1      )

 cart.    s( 2) = ( -1.0000000  0.0000000  0.0000000 )
                  (  0.0000000 -1.0000000  0.0000000 )
                  (  0.0000000 -0.0000000  1.0000000 )


      isym =  3     180 deg rotation - cart. axis [0,1,0]        

 cryst.   s( 3) = (     0         -1          1      )
                  (     0         -1          0      )
                  (     1         -1          0      )

 cart.    s( 3) = ( -1.0000000 -0.0000000 -0.0000000 )
                  (  0.0000000  1.0000000 -0.0000000 )
                  (  0.0000000  0.0000000 -1.0000000 )


      isym =  4     180 deg rotation - cart. axis [1,0,0]        

 cryst.   s( 4) = (    -1          0          0      )
                  (    -1          0          1      )
                  (    -1          1          0      )

 cart.    s( 4) = (  1.0000000  0.0000000 -0.0000000 )
                  ( -0.0000000 -1.0000000 -0.0000000 )
                  ( -0.0000000 -0.0000000 -1.0000000 )


      isym =  5     120 deg rotation - cart. axis [-1,-1,-1]     

 cryst.   s( 5) = (     0          0          1      )
                  (     1          0          0      )
                  (     0          1          0      )

 cart.    s( 5) = (  0.0000000  1.0000000 -0.0000000 )
                  (  0.0000000 -0.0000000  1.0000000 )
                  (  1.0000000 -0.0000000  0.0000000 )


      isym =  6     120 deg rotation - cart. axis [-1,1,1]       

 cryst.   s( 6) = (     1         -1          0      )
                  (     0         -1          1      )
                  (     0         -1          0      )

 cart.    s( 6) = ( -0.0000000 -1.0000000 -0.0000000 )
                  ( -0.0000000  0.0000000  1.0000000 )
                  ( -1.0000000  0.0000000  0.0000000 )


      isym =  7     120 deg rotation - cart. axis [1,1,-1]       

 cryst.   s( 7) = (    -1          1          0      )
                  (    -1          0          0      )
                  (    -1          0          1      )

 cart.    s( 7) = ( -0.0000000  1.0000000  0.0000000 )
                  ( -0.0000000 -0.0000000 -1.0000000 )
                  ( -1.0000000 -0.0000000 -0.0000000 )


      isym =  8     120 deg rotation - cart. axis [1,-1,1]       

 cryst.   s( 8) = (     0          0         -1      )
                  (     0          1         -1      )
                  (     1          0         -1      )

 cart.    s( 8) = (  0.0000000 -1.0000000  0.0000000 )
                  (  0.0000000  0.0000000 -1.0000000 )
                  (  1.0000000  0.0000000 -0.0000000 )


      isym =  9     120 deg rotation - cart. axis [1,1,1]        

 cryst.   s( 9) = (     0          1          0      )
                  (     0          0          1      )
                  (     1          0          0      )

 cart.    s( 9) = ( -0.0000000  0.0000000  1.0000000 )
                  (  1.0000000  0.0000000 -0.0000000 )
                  (  0.0000000  1.0000000 -0.0000000 )


      isym = 10     120 deg rotation - cart. axis [-1,1,-1]      

 cryst.   s(10) = (    -1          0          1      )
                  (    -1          1          0      )
                  (    -1          0          0      )

 cart.    s(10) = (  0.0000000 -0.0000000  1.0000000 )
                  ( -1.0000000 -0.0000000 -0.0000000 )
                  ( -0.0000000 -1.0000000 -0.0000000 )


      isym = 11     120 deg rotation - cart. axis [1,-1,-1]      

 cryst.   s(11) = (     1          0         -1      )
                  (     0          0         -1      )
                  (     0          1         -1      )

 cart.    s(11) = (  0.0000000  0.0000000 -1.0000000 )
                  ( -1.0000000  0.0000000  0.0000000 )
                  ( -0.0000000  1.0000000  0.0000000 )


      isym = 12     120 deg rotation - cart. axis [-1,-1,1]      

 cryst.   s(12) = (     0         -1          0      )
                  (     1         -1          0      )
                  (     0         -1          1      )

 cart.    s(12) = ( -0.0000000 -0.0000000 -1.0000000 )
                  (  1.0000000 -0.0000000  0.0000000 )
                  (  0.0000000 -1.0000000  0.0000000 )


      isym = 13     inv. 180 deg rotation - cart. axis [1,1,0]   

 cryst.   s(13) = (     1          0         -1      )
                  (     0          1         -1      )
                  (     0          0         -1      )

 cart.    s(13) = (  0.0000000 -1.0000000  0.0000000 )
                  ( -1.0000000  0.0000000  0.0000000 )
                  ( -0.0000000  0.0000000  1.0000000 )


      isym = 14     inv. 180 deg rotation - cart. axis [1,-1,0]  

 cryst.   s(14) = (     0          1          0      )
                  (     1          0          0      )
                  (     0          0          1      )

 cart.    s(14) = ( -0.0000000  1.0000000  0.0000000 )
                  (  1.0000000 -0.0000000  0.0000000 )
                  (  0.0000000 -0.0000000  1.0000000 )


      isym = 15     inv.  90 deg rotation - cart. axis [0,0,-1]  

 cryst.   s(15) = (     0         -1          0      )
                  (     0         -1          1      )
                  (     1         -1          0      )

 cart.    s(15) = ( -0.0000000 -1.0000000 -0.0000000 )
                  (  1.0000000  0.0000000 -0.0000000 )
                  (  0.0000000  0.0000000 -1.0000000 )


      isym = 16     inv.  90 deg rotation - cart. axis [0,0,1]   

 cryst.   s(16) = (    -1          0          1      )
                  (    -1          0          0      )
                  (    -1          1          0      )

 cart.    s(16) = (  0.0000000  1.0000000 -0.0000000 )
                  ( -1.0000000 -0.0000000 -0.0000000 )
                  ( -0.0000000 -0.0000000 -1.0000000 )


      isym = 17     inv. 180 deg rotation - cart. axis [1,0,1]   

 cryst.   s(17) = (     1         -1          0      )
                  (     0         -1          0      )
                  (     0         -1          1      )

 cart.    s(17) = ( -0.0000000 -0.0000000 -1.0000000 )
                  ( -0.0000000  1.0000000  0.0000000 )
                  ( -1.0000000  0.0000000  0.0000000 )


      isym = 18     inv. 180 deg rotation - cart. axis [-1,0,1]  

 cryst.   s(18) = (     0          0          1      )
                  (     0          1          0      )
                  (     1          0          0      )

 cart.    s(18) = (  0.0000000 -0.0000000  1.0000000 )
                  (  0.0000000  1.0000000 -0.0000000 )
                  (  1.0000000  0.0000000 -0.0000000 )


      isym = 19     inv.  90 deg rotation - cart. axis [0,1,0]   

 cryst.   s(19) = (     0          0         -1      )
                  (     1          0         -1      )
                  (     0          1         -1      )

 cart.    s(19) = (  0.0000000  0.0000000 -1.0000000 )
                  (  0.0000000 -1.0000000  0.0000000 )
                  (  1.0000000 -0.0000000  0.0000000 )


      isym = 20     inv.  90 deg rotation - cart. axis [0,-1,0]  

 cryst.   s(20) = (    -1          1          0      )
                  (    -1          0          1      )
                  (    -1          0          0      )

 cart.    s(20) = ( -0.0000000  0.0000000  1.0000000 )
                  ( -0.0000000 -1.0000000 -0.0000000 )
                  ( -1.0000000 -0.0000000 -0.0000000 )


      isym = 21     inv. 180 deg rotation - cart. axis [0,1,1]   

 cryst.   s(21) = (    -1          0          0      )
                  (    -1          1          0      )
                  (    -1          0          1      )

 cart.    s(21) = (  1.0000000 -0.0000000  0.0000000 )
                  ( -0.0000000 -0.0000000 -1.0000000 )
                  ( -0.0000000 -1.0000000 -0.0000000 )


      isym = 22     inv. 180 deg rotation - cart. axis [0,1,-1]  

 cryst.   s(22) = (     1          0          0      )
                  (     0          0          1      )
                  (     0          1          0      )

 cart.    s(22) = (  1.0000000  0.0000000 -0.0000000 )
                  ( -0.0000000  0.0000000  1.0000000 )
                  ( -0.0000000  1.0000000  0.0000000 )


      isym = 23     inv.  90 deg rotation - cart. axis [-1,0,0]  

 cryst.   s(23) = (     0          1         -1      )
                  (     0          0         -1      )
                  (     1          0         -1      )

 cart.    s(23) = ( -1.0000000  0.0000000  0.0000000 )
                  (  0.0000000  0.0000000 -1.0000000 )
                  (  0.0000000  1.0000000 -0.0000000 )


      isym = 24     inv.  90 deg rotation - cart. axis [1,0,0]   

 cryst.   s(24) = (     0         -1          1      )
                  (     1         -1          0      )
                  (     0         -1          0      )

 cart.    s(24) = ( -1.0000000 -0.0000000 -0.0000000 )
                  (  0.0000000 -0.0000000  1.0000000 )
                  (  0.0000000 -1.0000000  0.0000000 )


   Cartesian axes

     site n.     atom                  positions (alat units)
         1        Y      tau(   1) = (   0.3535534   0.3535534   0.3535534  )
         2        V      tau(   2) = (   0.7071068   0.0000000   0.0000000  )
         3        Cr     tau(   3) = (   0.0000000   0.0000000   0.0000000  )
         4        Si     tau(   4) = (   0.3535534   0.3535534   1.0606602  )

   Crystallographic axes

     site n.     atom                  positions (cryst. coord.)
         1        Y      tau(   1) = (  0.2500000  0.2500000  0.2500000  )
         2        V      tau(   2) = ( -0.5000000  0.5000000  0.5000000  )
         3        Cr     tau(   3) = (  0.0000000  0.0000000  0.0000000  )
         4        Si     tau(   4) = (  0.7500000  0.7500000 -0.2500000  )

     number of k points=    72  Marzari-Vanderbilt smearing, width (Ry)=  0.0200
                       cart. coord. in units 2pi/alat
        k(    1) = (   0.0000000   0.0000000   0.0000000), wk =   0.0005787
        k(    2) = (   0.0589256   0.0589256  -0.0589256), wk =   0.0046296
        k(    3) = (   0.1178511   0.1178511  -0.1178511), wk =   0.0046296
        k(    4) = (   0.1767767   0.1767767  -0.1767767), wk =   0.0046296
        k(    5) = (   0.2357023   0.2357023  -0.2357023), wk =   0.0046296
        k(    6) = (   0.2946278   0.2946278  -0.2946278), wk =   0.0046296
        k(    7) = (  -0.3535534  -0.3535534   0.3535534), wk =   0.0023148
        k(    8) = (   0.1178511   0.0000000  -0.0000000), wk =   0.0034722
        k(    9) = (   0.1767767   0.0589256  -0.0589256), wk =   0.0138889
        k(   10) = (   0.2357023   0.1178511  -0.1178511), wk =   0.0138889
        k(   11) = (   0.2946278   0.1767767  -0.1767767), wk =   0.0138889
        k(   12) = (   0.3535534   0.2357023  -0.2357023), wk =   0.0138889
        k(   13) = (  -0.2946278  -0.4124790   0.4124790), wk =   0.0138889
        k(   14) = (  -0.2357023  -0.3535534   0.3535534), wk =   0.0138889
        k(   15) = (  -0.1767767  -0.2946278   0.2946278), wk =   0.0138889
        k(   16) = (  -0.1178511  -0.2357023   0.2357023), wk =   0.0138889
        k(   17) = (  -0.0589256  -0.1767767   0.1767767), wk =   0.0138889
        k(   18) = (  -0.0000000  -0.1178511   0.1178511), wk =   0.0069444
        k(   19) = (   0.2357023   0.0000000  -0.0000000), wk =   0.0034722
        k(   20) = (   0.2946278   0.0589256  -0.0589256), wk =   0.0138889
        k(   21) = (   0.3535534   0.1178511  -0.1178511), wk =   0.0138889
        k(   22) = (   0.4124790   0.1767767  -0.1767767), wk =   0.0138889
        k(   23) = (  -0.2357023  -0.4714045   0.4714045), wk =   0.0138889
        k(   24) = (  -0.1767767  -0.4124790   0.4124790), wk =   0.0138889
        k(   25) = (  -0.1178511  -0.3535534   0.3535534), wk =   0.0138889
        k(   26) = (  -0.0589256  -0.2946278   0.2946278), wk =   0.0138889
        k(   27) = (   0.0000000  -0.2357023   0.2357023), wk =   0.0069444
        k(   28) = (   0.3535534   0.0000000   0.0000000), wk =   0.0034722
        k(   29) = (   0.4124790   0.0589256  -0.0589256), wk =   0.0138889
        k(   30) = (   0.4714045   0.1178511  -0.1178511), wk =   0.0138889
        k(   31) = (  -0.1767767  -0.5303301   0.5303301), wk =   0.0138889
        k(   32) = (  -0.1178511  -0.4714045   0.4714045), wk =   0.0138889
        k(   33) = (  -0.0589256  -0.4124790   0.4124790), wk =   0.0138889
        k(   34) = (   0.0000000  -0.3535534   0.3535534), wk =   0.0069444
        k(   35) = (   0.4714045   0.0000000  -0.0000000), wk =   0.0034722
        k(   36) = (   0.5303301   0.0589256  -0.0589256), wk =   0.0138889
        k(   37) = (  -0.1178511  -0.5892557   0.5892557), wk =   0.0138889
        k(   38) = (  -0.0589256  -0.5303301   0.5303301), wk =   0.0138889
        k(   39) = (  -0.0000000  -0.4714045   0.4714045), wk =   0.0069444
        k(   40) = (   0.5892557   0.0000000  -0.0000000), wk =   0.0034722
        k(   41) = (  -0.0589256  -0.6481812   0.6481812), wk =   0.0138889
        k(   42) = (   0.0000000  -0.5892557   0.5892557), wk =   0.0069444
        k(   43) = (  -0.7071068   0.0000000   0.0000000), wk =   0.0017361
        k(   44) = (   0.2357023   0.1178511   0.0000000), wk =   0.0138889
        k(   45) = (   0.2946278   0.1767767  -0.0589256), wk =   0.0277778
        k(   46) = (   0.3535534   0.2357023  -0.1178511), wk =   0.0277778
        k(   47) = (  -0.2946278  -0.4124790   0.5303301), wk =   0.0277778
        k(   48) = (  -0.2357023  -0.3535534   0.4714045), wk =   0.0138889
        k(   49) = (   0.3535534   0.1178511   0.0000000), wk =   0.0138889
        k(   50) = (   0.4124790   0.1767767  -0.0589256), wk =   0.0277778
        k(   51) = (  -0.2357023  -0.4714045   0.5892557), wk =   0.0277778
        k(   52) = (  -0.1767767  -0.4124790   0.5303301), wk =   0.0277778
        k(   53) = (  -0.1178511  -0.3535534   0.4714045), wk =   0.0277778
        k(   54) = (  -0.0589256  -0.2946278   0.4124790), wk =   0.0277778
        k(   55) = (   0.0000000  -0.2357023   0.3535534), wk =   0.0138889
        k(   56) = (   0.4714045   0.1178511  -0.0000000), wk =   0.0138889
        k(   57) = (  -0.1767767  -0.5303301   0.6481812), wk =   0.0277778
        k(   58) = (  -0.1178511  -0.4714045   0.5892557), wk =   0.0277778
        k(   59) = (  -0.0589256  -0.4124790   0.5303301), wk =   0.0277778
        k(   60) = (  -0.0000000  -0.3535534   0.4714045), wk =   0.0138889
        k(   61) = (  -0.1178511  -0.5892557   0.7071068), wk =   0.0138889
        k(   62) = (  -0.0589256  -0.5303301   0.6481812), wk =   0.0277778
        k(   63) = (  -0.0000000  -0.4714045   0.5892557), wk =   0.0138889
        k(   64) = (  -0.7071068   0.1178511  -0.0000000), wk =   0.0069444
        k(   65) = (  -0.2357023  -0.4714045   0.7071068), wk =   0.0138889
        k(   66) = (  -0.1767767  -0.4124790   0.6481812), wk =   0.0277778
        k(   67) = (  -0.1178511  -0.3535534   0.5892557), wk =   0.0138889
        k(   68) = (  -0.1178511  -0.4714045   0.7071068), wk =   0.0138889
        k(   69) = (  -0.0589256  -0.4124790   0.6481812), wk =   0.0277778
        k(   70) = (   0.0000000  -0.3535534   0.5892557), wk =   0.0138889
        k(   71) = (  -0.7071068   0.2357023   0.0000000), wk =   0.0069444
        k(   72) = (  -0.7071068   0.3535534   0.0000000), wk =   0.0034722

                       cryst. coord.
        k(    1) = (   0.0000000   0.0000000   0.0000000), wk =   0.0005787
        k(    2) = (   0.0000000   0.0000000   0.0833333), wk =   0.0046296
        k(    3) = (   0.0000000   0.0000000   0.1666667), wk =   0.0046296
        k(    4) = (   0.0000000   0.0000000   0.2500000), wk =   0.0046296
        k(    5) = (   0.0000000   0.0000000   0.3333333), wk =   0.0046296
        k(    6) = (  -0.0000000  -0.0000000   0.4166667), wk =   0.0046296
        k(    7) = (  -0.0000000  -0.0000000  -0.5000000), wk =   0.0023148
        k(    8) = (  -0.0000000   0.0833333   0.0833333), wk =   0.0034722
        k(    9) = (   0.0000000   0.0833333   0.1666667), wk =   0.0138889
        k(   10) = (  -0.0000000   0.0833333   0.2500000), wk =   0.0138889
        k(   11) = (   0.0000000   0.0833333   0.3333333), wk =   0.0138889
        k(   12) = (  -0.0000000   0.0833333   0.4166667), wk =   0.0138889
        k(   13) = (  -0.0000000   0.0833333  -0.5000000), wk =   0.0138889
        k(   14) = (   0.0000000   0.0833333  -0.4166667), wk =   0.0138889
        k(   15) = (  -0.0000000   0.0833333  -0.3333333), wk =   0.0138889
        k(   16) = (  -0.0000000   0.0833333  -0.2500000), wk =   0.0138889
        k(   17) = (   0.0000000   0.0833333  -0.1666667), wk =   0.0138889
        k(   18) = (   0.0000000   0.0833333  -0.0833333), wk =   0.0069444
        k(   19) = (  -0.0000000   0.1666667   0.1666667), wk =   0.0034722
        k(   20) = (  -0.0000000   0.1666667   0.2500000), wk =   0.0138889
        k(   21) = (   0.0000000   0.1666667   0.3333333), wk =   0.0138889
        k(   22) = (   0.0000000   0.1666667   0.4166667), wk =   0.0138889
        k(   23) = (  -0.0000000   0.1666667  -0.5000000), wk =   0.0138889
        k(   24) = (  -0.0000000   0.1666667  -0.4166667), wk =   0.0138889
        k(   25) = (  -0.0000000   0.1666667  -0.3333333), wk =   0.0138889
        k(   26) = (   0.0000000   0.1666667  -0.2500000), wk =   0.0138889
        k(   27) = (   0.0000000   0.1666667  -0.1666667), wk =   0.0069444
        k(   28) = (   0.0000000   0.2500000   0.2500000), wk =   0.0034722
        k(   29) = (  -0.0000000   0.2500000   0.3333333), wk =   0.0138889
        k(   30) = (  -0.0000000   0.2500000   0.4166667), wk =   0.0138889
        k(   31) = (   0.0000000   0.2500000  -0.5000000), wk =   0.0138889
        k(   32) = (  -0.0000000   0.2500000  -0.4166667), wk =   0.0138889
        k(   33) = (  -0.0000000   0.2500000  -0.3333333), wk =   0.0138889
        k(   34) = (  -0.0000000   0.2500000  -0.2500000), wk =   0.0069444
        k(   35) = (  -0.0000000   0.3333333   0.3333333), wk =   0.0034722
        k(   36) = (  -0.0000000   0.3333333   0.4166667), wk =   0.0138889
        k(   37) = (   0.0000000   0.3333333  -0.5000000), wk =   0.0138889
        k(   38) = (  -0.0000000   0.3333333  -0.4166667), wk =   0.0138889
        k(   39) = (   0.0000000   0.3333333  -0.3333333), wk =   0.0069444
        k(   40) = (   0.0000000   0.4166667   0.4166667), wk =   0.0034722
        k(   41) = (   0.0000000   0.4166667  -0.5000000), wk =   0.0138889
        k(   42) = (   0.0000000   0.4166667  -0.4166667), wk =   0.0069444
        k(   43) = (   0.0000000  -0.5000000  -0.5000000), wk =   0.0017361
        k(   44) = (   0.0833333   0.1666667   0.2500000), wk =   0.0138889
        k(   45) = (   0.0833333   0.1666667   0.3333333), wk =   0.0277778
        k(   46) = (   0.0833333   0.1666667   0.4166667), wk =   0.0277778
        k(   47) = (   0.0833333   0.1666667  -0.5000000), wk =   0.0277778
        k(   48) = (   0.0833333   0.1666667  -0.4166667), wk =   0.0138889
        k(   49) = (   0.0833333   0.2500000   0.3333333), wk =   0.0138889
        k(   50) = (   0.0833333   0.2500000   0.4166667), wk =   0.0277778
        k(   51) = (   0.0833333   0.2500000  -0.5000000), wk =   0.0277778
        k(   52) = (   0.0833333   0.2500000  -0.4166667), wk =   0.0277778
        k(   53) = (   0.0833333   0.2500000  -0.3333333), wk =   0.0277778
        k(   54) = (   0.0833333   0.2500000  -0.2500000), wk =   0.0277778
        k(   55) = (   0.0833333   0.2500000  -0.1666667), wk =   0.0138889
        k(   56) = (   0.0833333   0.3333333   0.4166667), wk =   0.0138889
        k(   57) = (   0.0833333   0.3333333  -0.5000000), wk =   0.0277778
        k(   58) = (   0.0833333   0.3333333  -0.4166667), wk =   0.0277778
        k(   59) = (   0.0833333   0.3333333  -0.3333333), wk =   0.0277778
        k(   60) = (   0.0833333   0.3333333  -0.2500000), wk =   0.0138889
        k(   61) = (   0.0833333   0.4166667  -0.5000000), wk =   0.0138889
        k(   62) = (   0.0833333   0.4166667  -0.4166667), wk =   0.0277778
        k(   63) = (   0.0833333   0.4166667  -0.3333333), wk =   0.0138889
        k(   64) = (   0.0833333  -0.5000000  -0.4166667), wk =   0.0069444
        k(   65) = (   0.1666667   0.3333333  -0.5000000), wk =   0.0138889
        k(   66) = (   0.1666667   0.3333333  -0.4166667), wk =   0.0277778
        k(   67) = (   0.1666667   0.3333333  -0.3333333), wk =   0.0138889
        k(   68) = (   0.1666667   0.4166667  -0.4166667), wk =   0.0138889
        k(   69) = (   0.1666667   0.4166667  -0.3333333), wk =   0.0277778
        k(   70) = (   0.1666667   0.4166667  -0.2500000), wk =   0.0138889
        k(   71) = (   0.1666667  -0.5000000  -0.3333333), wk =   0.0069444
        k(   72) = (   0.2500000  -0.5000000  -0.2500000), wk =   0.0034722

     Dense  grid:    39693 G-vectors     FFT dimensions: (  48,  48,  48)

     Smooth grid:    14163 G-vectors     FFT dimensions: (  36,  36,  36)

     Dynamical RAM for                 wfc:       0.08 MB

     Dynamical RAM for     wfc (w. buffer):       1.85 MB

     Dynamical RAM for           str. fact:       0.30 MB

     Dynamical RAM for           local pot:       0.00 MB

     Dynamical RAM for          nlocal pot:       0.24 MB

     Dynamical RAM for                qrad:       5.74 MB

     Dynamical RAM for          rho,v,vnew:       1.09 MB

     Dynamical RAM for               rhoin:       0.36 MB

     Dynamical RAM for            rho*nmix:       2.42 MB

     Dynamical RAM for           G-vectors:       0.30 MB

     Dynamical RAM for          h,s,v(r/c):       0.11 MB

     Dynamical RAM for          <psi|beta>:       0.03 MB

     Dynamical RAM for                 psi:       0.17 MB

     Dynamical RAM for                hpsi:       0.17 MB

     Dynamical RAM for                spsi:       0.17 MB

     Dynamical RAM for      wfcinit/wfcrot:       0.28 MB

     Dynamical RAM for           addusdens:       2.16 MB

     Dynamical RAM for          addusforce:       2.11 MB

     Dynamical RAM for         addusstress:       2.26 MB

     Estimated static dynamical RAM per process >      10.89 MB

     Estimated max dynamical RAM per process >      15.57 MB

     Estimated total dynamical RAM >     755.66 MB

     Check: negative core charge=   -0.000004
     Generating pointlists ...
     new r_m :   0.2526 (alat units)  2.1096 (a.u.) for type    1
     new r_m :   0.2526 (alat units)  2.1096 (a.u.) for type    2
     new r_m :   0.2526 (alat units)  2.1096 (a.u.) for type    3
     new r_m :   0.2526 (alat units)  2.1096 (a.u.) for type    4

     Initial potential from superposition of free atoms

     starting charge      40.9942, renormalised to      42.0000

     negative rho (up, down):  1.229E-03 5.676E-04
     Starting wfcs are   37 randomized atomic wfcs

     total cpu time spent up to now is        1.6 secs

     per-process dynamical memory:    23.1 Mb

     Self-consistent Calculation

     iteration #  1     ecut=    40.00 Ry     beta= 0.40
     Davidson diagonalization with overlap

---- Real-time Memory Report at c_bands before calling an iterative solver
            59 MiB given to the printing process from OS
            22 MiB allocation reported by mallinfo(arena+hblkhd)
        485775 MiB available memory on the node where the printing process lives
------------------
     ethr =  1.00E-02,  avg # of iterations =  2.7

     negative rho (up, down):  6.326E-04 1.140E-03

     total cpu time spent up to now is        2.1 secs

     total energy              =    -423.59496979 Ry
     estimated scf accuracy    <       1.53533197 Ry

     total magnetization       =     6.07 Bohr mag/cell
     absolute magnetization    =     6.24 Bohr mag/cell

     iteration #  2     ecut=    40.00 Ry     beta= 0.40
     Davidson diagonalization with overlap

---- Real-time Memory Report at c_bands before calling an iterative solver
            63 MiB given to the printing process from OS
            25 MiB allocation reported by mallinfo(arena+hblkhd)
        485631 MiB available memory on the node where the printing process lives
------------------
     ethr =  3.66E-03,  avg # of iterations =  6.8

     negative rho (up, down):  6.122E-04 1.145E-03

     total cpu time spent up to now is        2.7 secs

     total energy              =    -422.84868777 Ry
     estimated scf accuracy    <      15.77543899 Ry

     total magnetization       =     1.69 Bohr mag/cell
     absolute magnetization    =     2.02 Bohr mag/cell

     iteration #  3     ecut=    40.00 Ry     beta= 0.40
     Davidson diagonalization with overlap

---- Real-time Memory Report at c_bands before calling an iterative solver
            63 MiB given to the printing process from OS
            25 MiB allocation reported by mallinfo(arena+hblkhd)
        485628 MiB available memory on the node where the printing process lives
------------------
     ethr =  3.66E-03,  avg # of iterations =  5.6

     negative rho (up, down):  6.061E-05 1.748E-03

     total cpu time spent up to now is        3.2 secs

     total energy              =    -424.24314571 Ry
     estimated scf accuracy    <       0.22616475 Ry

     total magnetization       =     5.87 Bohr mag/cell
     absolute magnetization    =     6.09 Bohr mag/cell

     iteration #  4     ecut=    40.00 Ry     beta= 0.40
     Davidson diagonalization with overlap

---- Real-time Memory Report at c_bands before calling an iterative solver
            64 MiB given to the printing process from OS
            25 MiB allocation reported by mallinfo(arena+hblkhd)
        485626 MiB available memory on the node where the printing process lives
------------------
     ethr =  5.38E-04,  avg # of iterations =  3.3

     negative rho (up, down):  1.591E-06 2.208E-03

     total cpu time spent up to now is        3.7 secs

     total energy              =    -424.27915204 Ry
     estimated scf accuracy    <       0.08305256 Ry

     total magnetization       =     4.99 Bohr mag/cell
     absolute magnetization    =     5.23 Bohr mag/cell

     iteration #  5     ecut=    40.00 Ry     beta= 0.40
     Davidson diagonalization with overlap

---- Real-time Memory Report at c_bands before calling an iterative solver
            64 MiB given to the printing process from OS
            25 MiB allocation reported by mallinfo(arena+hblkhd)
        485625 MiB available memory on the node where the printing process lives
------------------
     ethr =  1.98E-04,  avg # of iterations =  4.0

     negative rho (up, down):  3.290E-05 1.906E-03

     total cpu time spent up to now is        4.1 secs

     total energy              =    -424.29301382 Ry
     estimated scf accuracy    <       0.00531733 Ry

     total magnetization       =     4.58 Bohr mag/cell
     absolute magnetization    =     4.83 Bohr mag/cell

     iteration #  6     ecut=    40.00 Ry     beta= 0.40
     Davidson diagonalization with overlap

---- Real-time Memory Report at c_bands before calling an iterative solver
            64 MiB given to the printing process from OS
            25 MiB allocation reported by mallinfo(arena+hblkhd)
        485623 MiB available memory on the node where the printing process lives
------------------
     ethr =  1.27E-05,  avg # of iterations =  9.7

     negative rho (up, down):  3.384E-05 1.891E-03

     total cpu time spent up to now is        4.9 secs

     total energy              =    -424.29706239 Ry
     estimated scf accuracy    <       0.01286427 Ry

     total magnetization       =     4.36 Bohr mag/cell
     absolute magnetization    =     4.58 Bohr mag/cell

     iteration #  7     ecut=    40.00 Ry     beta= 0.40
     Davidson diagonalization with overlap

---- Real-time Memory Report at c_bands before calling an iterative solver
            64 MiB given to the printing process from OS
            25 MiB allocation reported by mallinfo(arena+hblkhd)
        485610 MiB available memory on the node where the printing process lives
------------------
     ethr =  1.27E-05,  avg # of iterations =  1.1

     negative rho (up, down):  5.064E-05 1.862E-03

     total cpu time spent up to now is        5.2 secs

     total energy              =    -424.29711815 Ry
     estimated scf accuracy    <       0.01094298 Ry

     total magnetization       =     4.34 Bohr mag/cell
     absolute magnetization    =     4.56 Bohr mag/cell

     iteration #  8     ecut=    40.00 Ry     beta= 0.40
     Davidson diagonalization with overlap

---- Real-time Memory Report at c_bands before calling an iterative solver
            65 MiB given to the printing process from OS
            25 MiB allocation reported by mallinfo(arena+hblkhd)
        485610 MiB available memory on the node where the printing process lives
------------------
     ethr =  1.27E-05,  avg # of iterations =  1.5

     negative rho (up, down):  9.502E-05 1.791E-03

     total cpu time spent up to now is        5.6 secs

     total energy              =    -424.29907660 Ry
     estimated scf accuracy    <       0.00417787 Ry

     total magnetization       =     4.11 Bohr mag/cell
     absolute magnetization    =     4.34 Bohr mag/cell

     iteration #  9     ecut=    40.00 Ry     beta= 0.40
     Davidson diagonalization with overlap

---- Real-time Memory Report at c_bands before calling an iterative solver
            65 MiB given to the printing process from OS
            25 MiB allocation reported by mallinfo(arena+hblkhd)
        485608 MiB available memory on the node where the printing process lives
------------------
     ethr =  9.95E-06,  avg # of iterations =  2.3

     negative rho (up, down):  1.329E-04 1.724E-03

     total cpu time spent up to now is        6.0 secs

     total energy              =    -424.29932589 Ry
     estimated scf accuracy    <       0.00679694 Ry

     total magnetization       =     3.90 Bohr mag/cell
     absolute magnetization    =     4.11 Bohr mag/cell

     iteration # 10     ecut=    40.00 Ry     beta= 0.40
     Davidson diagonalization with overlap

---- Real-time Memory Report at c_bands before calling an iterative solver
            65 MiB given to the printing process from OS
            25 MiB allocation reported by mallinfo(arena+hblkhd)
        485607 MiB available memory on the node where the printing process lives
------------------
     ethr =  9.95E-06,  avg # of iterations =  3.9

     negative rho (up, down):  1.574E-04 1.687E-03

     total cpu time spent up to now is        6.5 secs

     total energy              =    -424.30074556 Ry
     estimated scf accuracy    <       0.00073972 Ry

     total magnetization       =     3.66 Bohr mag/cell
     absolute magnetization    =     3.86 Bohr mag/cell

     iteration # 11     ecut=    40.00 Ry     beta= 0.40
     Davidson diagonalization with overlap

---- Real-time Memory Report at c_bands before calling an iterative solver
            65 MiB given to the printing process from OS
            25 MiB allocation reported by mallinfo(arena+hblkhd)
        485607 MiB available memory on the node where the printing process lives
------------------
     ethr =  1.76E-06,  avg # of iterations =  5.6

     negative rho (up, down):  1.808E-04 1.650E-03

     total cpu time spent up to now is        7.1 secs

     total energy              =    -424.30134806 Ry
     estimated scf accuracy    <       0.00033439 Ry

     total magnetization       =     3.47 Bohr mag/cell
     absolute magnetization    =     3.66 Bohr mag/cell

     iteration # 12     ecut=    40.00 Ry     beta= 0.40
     Davidson diagonalization with overlap

---- Real-time Memory Report at c_bands before calling an iterative solver
            65 MiB given to the printing process from OS
            25 MiB allocation reported by mallinfo(arena+hblkhd)
        485607 MiB available memory on the node where the printing process lives
------------------
     ethr =  7.96E-07,  avg # of iterations =  5.2

     negative rho (up, down):  1.254E-04 1.722E-03

     total cpu time spent up to now is        7.6 secs

     total energy              =    -424.29847886 Ry
     estimated scf accuracy    <       0.00116220 Ry

     total magnetization       =     3.28 Bohr mag/cell
     absolute magnetization    =     3.45 Bohr mag/cell

     iteration # 13     ecut=    40.00 Ry     beta= 0.40
     Davidson diagonalization with overlap

---- Real-time Memory Report at c_bands before calling an iterative solver
            65 MiB given to the printing process from OS
            25 MiB allocation reported by mallinfo(arena+hblkhd)
        485605 MiB available memory on the node where the printing process lives
------------------
     ethr =  7.96E-07,  avg # of iterations =  5.9

     negative rho (up, down):  1.333E-04 1.713E-03

     total cpu time spent up to now is        8.2 secs

     total energy              =    -424.30055232 Ry
     estimated scf accuracy    <       0.00386452 Ry

     total magnetization       =     3.70 Bohr mag/cell
     absolute magnetization    =     3.89 Bohr mag/cell

     iteration # 14     ecut=    40.00 Ry     beta= 0.40
     Davidson diagonalization with overlap

---- Real-time Memory Report at c_bands before calling an iterative solver
            65 MiB given to the printing process from OS
            25 MiB allocation reported by mallinfo(arena+hblkhd)
        485605 MiB available memory on the node where the printing process lives
------------------
     ethr =  7.96E-07,  avg # of iterations =  1.0

     negative rho (up, down):  1.906E-04 1.646E-03

     total cpu time spent up to now is        8.5 secs

     total energy              =    -424.30012046 Ry
     estimated scf accuracy    <       0.00402626 Ry

     total magnetization       =     3.64 Bohr mag/cell
     absolute magnetization    =     3.83 Bohr mag/cell

     iteration # 15     ecut=    40.00 Ry     beta= 0.40
     Davidson diagonalization with overlap

---- Real-time Memory Report at c_bands before calling an iterative solver
            66 MiB given to the printing process from OS
            25 MiB allocation reported by mallinfo(arena+hblkhd)
        485601 MiB available memory on the node where the printing process lives
------------------
     ethr =  7.96E-07,  avg # of iterations =  6.2

     negative rho (up, down):  1.643E-04 1.664E-03

     total cpu time spent up to now is        9.2 secs

     total energy              =    -424.30093979 Ry
     estimated scf accuracy    <       0.00091448 Ry

     total magnetization       =     3.23 Bohr mag/cell
     absolute magnetization    =     3.41 Bohr mag/cell

     iteration # 16     ecut=    40.00 Ry     beta= 0.40
     Davidson diagonalization with overlap

---- Real-time Memory Report at c_bands before calling an iterative solver
            66 MiB given to the printing process from OS
            25 MiB allocation reported by mallinfo(arena+hblkhd)
        485595 MiB available memory on the node where the printing process lives
------------------
     ethr =  7.96E-07,  avg # of iterations =  3.9

     negative rho (up, down):  2.044E-04 1.626E-03

     total cpu time spent up to now is        9.7 secs

     total energy              =    -424.30139884 Ry
     estimated scf accuracy    <       0.00044955 Ry

     total magnetization       =     3.40 Bohr mag/cell
     absolute magnetization    =     3.57 Bohr mag/cell

     iteration # 17     ecut=    40.00 Ry     beta= 0.40
     Davidson diagonalization with overlap

---- Real-time Memory Report at c_bands before calling an iterative solver
            66 MiB given to the printing process from OS
            25 MiB allocation reported by mallinfo(arena+hblkhd)
        485595 MiB available memory on the node where the printing process lives
------------------
     ethr =  7.96E-07,  avg # of iterations =  4.6

     negative rho (up, down):  2.398E-04 1.595E-03

     total cpu time spent up to now is       10.2 secs

     total energy              =    -424.30241343 Ry
     estimated scf accuracy    <       0.00040821 Ry

     total magnetization       =     3.09 Bohr mag/cell
     absolute magnetization    =     3.27 Bohr mag/cell

     iteration # 18     ecut=    40.00 Ry     beta= 0.40
     Davidson diagonalization with overlap

---- Real-time Memory Report at c_bands before calling an iterative solver
            66 MiB given to the printing process from OS
            25 MiB allocation reported by mallinfo(arena+hblkhd)
        485591 MiB available memory on the node where the printing process lives
------------------
     ethr =  7.96E-07,  avg # of iterations =  5.6

     negative rho (up, down):  2.385E-04 1.589E-03

     total cpu time spent up to now is       10.7 secs

     total energy              =    -424.30307464 Ry
     estimated scf accuracy    <       0.00073511 Ry

     total magnetization       =     2.82 Bohr mag/cell
     absolute magnetization    =     3.00 Bohr mag/cell

     iteration # 19     ecut=    40.00 Ry     beta= 0.40
     Davidson diagonalization with overlap

---- Real-time Memory Report at c_bands before calling an iterative solver
            66 MiB given to the printing process from OS
            25 MiB allocation reported by mallinfo(arena+hblkhd)
        485590 MiB available memory on the node where the printing process lives
------------------
     ethr =  7.96E-07,  avg # of iterations =  3.0

     negative rho (up, down):  4.591E-04 1.389E-03

     total cpu time spent up to now is       11.1 secs

     total energy              =    -424.28299304 Ry
     estimated scf accuracy    <       0.00038672 Ry

     total magnetization       =     2.81 Bohr mag/cell
     absolute magnetization    =     2.97 Bohr mag/cell

     iteration # 20     ecut=    40.00 Ry     beta= 0.40
     Davidson diagonalization with overlap

---- Real-time Memory Report at c_bands before calling an iterative solver
            66 MiB given to the printing process from OS
            25 MiB allocation reported by mallinfo(arena+hblkhd)
        485590 MiB available memory on the node where the printing process lives
------------------
     ethr =  7.96E-07,  avg # of iterations = 12.6

     negative rho (up, down):  4.112E-04 1.420E-03

     total cpu time spent up to now is       12.1 secs

     total energy              =    -424.31125420 Ry
     estimated scf accuracy    <       0.01047230 Ry

     total magnetization       =     0.74 Bohr mag/cell
     absolute magnetization    =     3.53 Bohr mag/cell

     iteration # 21     ecut=    40.00 Ry     beta= 0.40
     Davidson diagonalization with overlap

---- Real-time Memory Report at c_bands before calling an iterative solver
            66 MiB given to the printing process from OS
            25 MiB allocation reported by mallinfo(arena+hblkhd)
        485590 MiB available memory on the node where the printing process lives
------------------
     ethr =  7.96E-07,  avg # of iterations =  6.6

     negative rho (up, down):  4.149E-04 1.415E-03

     total cpu time spent up to now is       12.7 secs

     total energy              =    -424.31368040 Ry
     estimated scf accuracy    <       0.00528602 Ry

     total magnetization       =     1.16 Bohr mag/cell
     absolute magnetization    =     2.99 Bohr mag/cell

     iteration # 22     ecut=    40.00 Ry     beta= 0.40
     Davidson diagonalization with overlap

---- Real-time Memory Report at c_bands before calling an iterative solver
            66 MiB given to the printing process from OS
            25 MiB allocation reported by mallinfo(arena+hblkhd)
        485590 MiB available memory on the node where the printing process lives
------------------
     ethr =  7.96E-07,  avg # of iterations =  1.1

     negative rho (up, down):  5.257E-04 1.315E-03

     total cpu time spent up to now is       13.1 secs

     total energy              =    -424.31878216 Ry
     estimated scf accuracy    <       0.00542903 Ry

     total magnetization       =     1.13 Bohr mag/cell
     absolute magnetization    =     3.02 Bohr mag/cell

     iteration # 23     ecut=    40.00 Ry     beta= 0.40
     Davidson diagonalization with overlap

---- Real-time Memory Report at c_bands before calling an iterative solver
            66 MiB given to the printing process from OS
            25 MiB allocation reported by mallinfo(arena+hblkhd)
        485590 MiB available memory on the node where the printing process lives
------------------
     ethr =  7.96E-07,  avg # of iterations =  8.6

     negative rho (up, down):  1.230E-04 1.675E-03

     total cpu time spent up to now is       13.8 secs

     total energy              =    -424.17710052 Ry
     estimated scf accuracy    <       0.02220983 Ry

     total magnetization       =     0.29 Bohr mag/cell
     absolute magnetization    =     4.09 Bohr mag/cell

     iteration # 24     ecut=    40.00 Ry     beta= 0.40
     Davidson diagonalization with overlap

---- Real-time Memory Report at c_bands before calling an iterative solver
            66 MiB given to the printing process from OS
            25 MiB allocation reported by mallinfo(arena+hblkhd)
        485590 MiB available memory on the node where the printing process lives
------------------
     ethr =  7.96E-07,  avg # of iterations = 12.9

     negative rho (up, down):  0.000E+00 1.837E-03

     total cpu time spent up to now is       14.9 secs

     total energy              =    -424.28571469 Ry
     estimated scf accuracy    <       0.00040664 Ry

     total magnetization       =     3.56 Bohr mag/cell
     absolute magnetization    =     3.73 Bohr mag/cell

     iteration # 25     ecut=    40.00 Ry     beta= 0.40
     Davidson diagonalization with overlap

---- Real-time Memory Report at c_bands before calling an iterative solver
            66 MiB given to the printing process from OS
            25 MiB allocation reported by mallinfo(arena+hblkhd)
        485590 MiB available memory on the node where the printing process lives
------------------
     ethr =  7.96E-07,  avg # of iterations = 10.2

     negative rho (up, down):  3.704E-05 1.756E-03

     total cpu time spent up to now is       15.8 secs

     total energy              =    -424.29606977 Ry
     estimated scf accuracy    <       0.00209228 Ry

     total magnetization       =     4.28 Bohr mag/cell
     absolute magnetization    =     4.47 Bohr mag/cell

     iteration # 26     ecut=    40.00 Ry     beta= 0.40
     Davidson diagonalization with overlap

---- Real-time Memory Report at c_bands before calling an iterative solver
            66 MiB given to the printing process from OS
            25 MiB allocation reported by mallinfo(arena+hblkhd)
        485589 MiB available memory on the node where the printing process lives
------------------
     ethr =  7.96E-07,  avg # of iterations =  6.2

     negative rho (up, down):  4.360E-05 1.751E-03

     total cpu time spent up to now is       16.4 secs

     total energy              =    -424.29740109 Ry
     estimated scf accuracy    <       0.00092791 Ry

     total magnetization       =     4.04 Bohr mag/cell
     absolute magnetization    =     4.22 Bohr mag/cell

     iteration # 27     ecut=    40.00 Ry     beta= 0.40
     Davidson diagonalization with overlap

---- Real-time Memory Report at c_bands before calling an iterative solver
            66 MiB given to the printing process from OS
            25 MiB allocation reported by mallinfo(arena+hblkhd)
        485589 MiB available memory on the node where the printing process lives
------------------
     ethr =  7.96E-07,  avg # of iterations =  1.4

     negative rho (up, down):  7.418E-05 1.724E-03

     total cpu time spent up to now is       16.7 secs

     total energy              =    -424.29835563 Ry
     estimated scf accuracy    <       0.00083335 Ry

     total magnetization       =     4.00 Bohr mag/cell
     absolute magnetization    =     4.19 Bohr mag/cell

     iteration # 28     ecut=    40.00 Ry     beta= 0.40
     Davidson diagonalization with overlap

---- Real-time Memory Report at c_bands before calling an iterative solver
            66 MiB given to the printing process from OS
            25 MiB allocation reported by mallinfo(arena+hblkhd)
        485589 MiB available memory on the node where the printing process lives
------------------
     ethr =  7.96E-07,  avg # of iterations =  5.3

     negative rho (up, down):  1.507E-04 1.659E-03

     total cpu time spent up to now is       17.3 secs

     total energy              =    -424.29847940 Ry
     estimated scf accuracy    <       0.00058233 Ry

     total magnetization       =     3.84 Bohr mag/cell
     absolute magnetization    =     4.02 Bohr mag/cell

     iteration # 29     ecut=    40.00 Ry     beta= 0.40
     Davidson diagonalization with overlap

---- Real-time Memory Report at c_bands before calling an iterative solver
            67 MiB given to the printing process from OS
            25 MiB allocation reported by mallinfo(arena+hblkhd)
        485588 MiB available memory on the node where the printing process lives
------------------
     ethr =  7.96E-07,  avg # of iterations =  8.2

     negative rho (up, down):  1.213E-04 1.683E-03

     total cpu time spent up to now is       18.0 secs

     total energy              =    -424.29987621 Ry
     estimated scf accuracy    <       0.00024062 Ry

     total magnetization       =     3.40 Bohr mag/cell
     absolute magnetization    =     3.57 Bohr mag/cell

     iteration # 30     ecut=    40.00 Ry     beta= 0.40
     Davidson diagonalization with overlap

---- Real-time Memory Report at c_bands before calling an iterative solver
            67 MiB given to the printing process from OS
            25 MiB allocation reported by mallinfo(arena+hblkhd)
        485588 MiB available memory on the node where the printing process lives
------------------
     ethr =  5.73E-07,  avg # of iterations =  5.0

     negative rho (up, down):  2.082E-04 1.611E-03

     total cpu time spent up to now is       18.5 secs

     total energy              =    -424.29871703 Ry
     estimated scf accuracy    <       0.00033298 Ry

     total magnetization       =     3.57 Bohr mag/cell
     absolute magnetization    =     3.74 Bohr mag/cell

     iteration # 31     ecut=    40.00 Ry     beta= 0.40
     Davidson diagonalization with overlap

---- Real-time Memory Report at c_bands before calling an iterative solver
            67 MiB given to the printing process from OS
            25 MiB allocation reported by mallinfo(arena+hblkhd)
        485588 MiB available memory on the node where the printing process lives
------------------
     ethr =  5.73E-07,  avg # of iterations =  8.4

     negative rho (up, down):  3.647E-04 1.477E-03

     total cpu time spent up to now is       19.3 secs

     total energy              =    -424.29311925 Ry
     estimated scf accuracy    <       0.00028187 Ry

     total magnetization       =     3.01 Bohr mag/cell
     absolute magnetization    =     3.17 Bohr mag/cell

     iteration # 32     ecut=    40.00 Ry     beta= 0.40
     Davidson diagonalization with overlap

---- Real-time Memory Report at c_bands before calling an iterative solver
            67 MiB given to the printing process from OS
            25 MiB allocation reported by mallinfo(arena+hblkhd)
        485588 MiB available memory on the node where the printing process lives
------------------
     ethr =  5.73E-07,  avg # of iterations = 11.7

     negative rho (up, down):  0.000E+00 2.430E-03

     total cpu time spent up to now is       20.3 secs

     total energy              =    -424.17667424 Ry
     estimated scf accuracy    <       0.00245655 Ry

     total magnetization       =     1.66 Bohr mag/cell
     absolute magnetization    =     2.59 Bohr mag/cell

     iteration # 33     ecut=    40.00 Ry     beta= 0.40
     Davidson diagonalization with overlap

---- Real-time Memory Report at c_bands before calling an iterative solver
            67 MiB given to the printing process from OS
            25 MiB allocation reported by mallinfo(arena+hblkhd)
        485587 MiB available memory on the node where the printing process lives
------------------
     ethr =  5.73E-07,  avg # of iterations = 13.7

     negative rho (up, down):  0.000E+00 3.193E-03

     total cpu time spent up to now is       21.4 secs

     total energy              =    -424.28245962 Ry
     estimated scf accuracy    <       0.00384315 Ry

     total magnetization       =     4.44 Bohr mag/cell
     absolute magnetization    =     4.64 Bohr mag/cell

     iteration # 34     ecut=    40.00 Ry     beta= 0.40
     Davidson diagonalization with overlap

---- Real-time Memory Report at c_bands before calling an iterative solver
            67 MiB given to the printing process from OS
            25 MiB allocation reported by mallinfo(arena+hblkhd)
        485587 MiB available memory on the node where the printing process lives
------------------
     ethr =  5.73E-07,  avg # of iterations =  7.4

     negative rho (up, down):  8.462E-06 6.141E-03

     total cpu time spent up to now is       22.2 secs

     total energy              =    -424.22327868 Ry
     estimated scf accuracy    <       0.00742319 Ry

     total magnetization       =     4.69 Bohr mag/cell
     absolute magnetization    =     4.90 Bohr mag/cell

     iteration # 35     ecut=    40.00 Ry     beta= 0.40
     Davidson diagonalization with overlap

---- Real-time Memory Report at c_bands before calling an iterative solver
            67 MiB given to the printing process from OS
            25 MiB allocation reported by mallinfo(arena+hblkhd)
        485587 MiB available memory on the node where the printing process lives
------------------
     ethr =  5.73E-07,  avg # of iterations = 12.6

     negative rho (up, down):  8.843E-06 6.461E-03

     total cpu time spent up to now is       23.3 secs

     total energy              =    -424.22853494 Ry
     estimated scf accuracy    <       0.03245226 Ry

     total magnetization       =     5.40 Bohr mag/cell
     absolute magnetization    =     5.66 Bohr mag/cell

     iteration # 36     ecut=    40.00 Ry     beta= 0.40
     Davidson diagonalization with overlap

---- Real-time Memory Report at c_bands before calling an iterative solver
            67 MiB given to the printing process from OS
            25 MiB allocation reported by mallinfo(arena+hblkhd)
        485587 MiB available memory on the node where the printing process lives
------------------
     ethr =  5.73E-07,  avg # of iterations =  5.6

     negative rho (up, down):  0.000E+00 4.302E-03

     total cpu time spent up to now is       23.9 secs

     total energy              =    -424.26470857 Ry
     estimated scf accuracy    <       0.03670662 Ry

     total magnetization       =     5.47 Bohr mag/cell
     absolute magnetization    =     5.73 Bohr mag/cell

     iteration # 37     ecut=    40.00 Ry     beta= 0.40
     Davidson diagonalization with overlap

---- Real-time Memory Report at c_bands before calling an iterative solver
            67 MiB given to the printing process from OS
            25 MiB allocation reported by mallinfo(arena+hblkhd)
        485587 MiB available memory on the node where the printing process lives
------------------
     ethr =  5.73E-07,  avg # of iterations = 10.9

     negative rho (up, down):  0.000E+00 5.560E-03

     total cpu time spent up to now is       24.9 secs

     total energy              =    -424.24655016 Ry
     estimated scf accuracy    <       0.01411249 Ry

     total magnetization       =     4.99 Bohr mag/cell
     absolute magnetization    =     5.22 Bohr mag/cell

     iteration # 38     ecut=    40.00 Ry     beta= 0.40
     Davidson diagonalization with overlap

---- Real-time Memory Report at c_bands before calling an iterative solver
            67 MiB given to the printing process from OS
            25 MiB allocation reported by mallinfo(arena+hblkhd)
        485587 MiB available memory on the node where the printing process lives
------------------
     ethr =  5.73E-07,  avg # of iterations =  8.6

     negative rho (up, down):  0.000E+00 5.672E-03

     total cpu time spent up to now is       25.7 secs

     total energy              =    -424.24642648 Ry
     estimated scf accuracy    <       0.02507021 Ry

     total magnetization       =     5.30 Bohr mag/cell
     absolute magnetization    =     5.55 Bohr mag/cell

     iteration # 39     ecut=    40.00 Ry     beta= 0.40
     Davidson diagonalization with overlap

---- Real-time Memory Report at c_bands before calling an iterative solver
            67 MiB given to the printing process from OS
            25 MiB allocation reported by mallinfo(arena+hblkhd)
        485586 MiB available memory on the node where the printing process lives
------------------
     ethr =  5.73E-07,  avg # of iterations =  1.5

     negative rho (up, down):  1.888E-04 1.648E-03

     total cpu time spent up to now is       26.0 secs

     total energy              =    -424.23551763 Ry
     estimated scf accuracy    <       0.02631222 Ry

     total magnetization       =     5.35 Bohr mag/cell
     absolute magnetization    =     5.59 Bohr mag/cell

     iteration # 40     ecut=    40.00 Ry     beta= 0.40
     Davidson diagonalization with overlap

---- Real-time Memory Report at c_bands before calling an iterative solver
            67 MiB given to the printing process from OS
            25 MiB allocation reported by mallinfo(arena+hblkhd)
        485586 MiB available memory on the node where the printing process lives
------------------
     ethr =  5.73E-07,  avg # of iterations = 14.6

     negative rho (up, down):  3.749E-04 1.491E-03

     total cpu time spent up to now is       27.2 secs

     total energy              =    -424.28771867 Ry
     estimated scf accuracy    <       0.00028521 Ry

     total magnetization       =     3.23 Bohr mag/cell
     absolute magnetization    =     3.39 Bohr mag/cell

     iteration # 41     ecut=    40.00 Ry     beta= 0.40
     Davidson diagonalization with overlap

---- Real-time Memory Report at c_bands before calling an iterative solver
            67 MiB given to the printing process from OS
            25 MiB allocation reported by mallinfo(arena+hblkhd)
        485586 MiB available memory on the node where the printing process lives
------------------
     ethr =  5.73E-07,  avg # of iterations = 12.6

     negative rho (up, down):  5.904E-04 1.304E-03

     total cpu time spent up to now is       28.3 secs

     total energy              =    -424.30246379 Ry
     estimated scf accuracy    <       0.00461852 Ry

     total magnetization       =     1.65 Bohr mag/cell
     absolute magnetization    =     2.75 Bohr mag/cell

     iteration # 42     ecut=    40.00 Ry     beta= 0.40
     Davidson diagonalization with overlap

---- Real-time Memory Report at c_bands before calling an iterative solver
            67 MiB given to the printing process from OS
            25 MiB allocation reported by mallinfo(arena+hblkhd)
        485586 MiB available memory on the node where the printing process lives
------------------
     ethr =  5.73E-07,  avg # of iterations = 13.6

     negative rho (up, down):  2.203E-04 1.613E-03

     total cpu time spent up to now is       29.3 secs

     total energy              =    -424.20376421 Ry
     estimated scf accuracy    <       0.06152827 Ry

     total magnetization       =     0.12 Bohr mag/cell
     absolute magnetization    =     4.76 Bohr mag/cell

     iteration # 43     ecut=    40.00 Ry     beta= 0.40
     Davidson diagonalization with overlap

---- Real-time Memory Report at c_bands before calling an iterative solver
            67 MiB given to the printing process from OS
            25 MiB allocation reported by mallinfo(arena+hblkhd)
        485586 MiB available memory on the node where the printing process lives
------------------
     ethr =  5.73E-07,  avg # of iterations = 13.1

     negative rho (up, down):  1.516E-04 1.669E-03

     total cpu time spent up to now is       30.4 secs

     total energy              =    -424.29842078 Ry
     estimated scf accuracy    <       0.00026615 Ry

     total magnetization       =     2.97 Bohr mag/cell
     absolute magnetization    =     3.13 Bohr mag/cell

     iteration # 44     ecut=    40.00 Ry     beta= 0.40
     Davidson diagonalization with overlap

---- Real-time Memory Report at c_bands before calling an iterative solver
            67 MiB given to the printing process from OS
            25 MiB allocation reported by mallinfo(arena+hblkhd)
        485586 MiB available memory on the node where the printing process lives
------------------
     ethr =  5.73E-07,  avg # of iterations =  8.5

     negative rho (up, down):  1.354E-04 1.680E-03

     total cpu time spent up to now is       31.1 secs

     total energy              =    -424.30052587 Ry
     estimated scf accuracy    <       0.00024356 Ry

     total magnetization       =     3.43 Bohr mag/cell
     absolute magnetization    =     3.59 Bohr mag/cell

     iteration # 45     ecut=    40.00 Ry     beta= 0.40
     Davidson diagonalization with overlap

---- Real-time Memory Report at c_bands before calling an iterative solver
            67 MiB given to the printing process from OS
            25 MiB allocation reported by mallinfo(arena+hblkhd)
        485578 MiB available memory on the node where the printing process lives
------------------
     ethr =  5.73E-07,  avg # of iterations =  4.4

     negative rho (up, down):  9.038E-05 1.719E-03

     total cpu time spent up to now is       31.7 secs

     total energy              =    -424.29839430 Ry
     estimated scf accuracy    <       0.00028720 Ry

     total magnetization       =     3.52 Bohr mag/cell
     absolute magnetization    =     3.68 Bohr mag/cell

     iteration # 46     ecut=    40.00 Ry     beta= 0.40
     Davidson diagonalization with overlap

---- Real-time Memory Report at c_bands before calling an iterative solver
            67 MiB given to the printing process from OS
            25 MiB allocation reported by mallinfo(arena+hblkhd)
        485578 MiB available memory on the node where the printing process lives
------------------
     ethr =  5.73E-07,  avg # of iterations =  6.6

     negative rho (up, down):  2.198E-04 1.611E-03

     total cpu time spent up to now is       32.3 secs

     total energy              =    -424.29486524 Ry
     estimated scf accuracy    <       0.00047877 Ry

     total magnetization       =     3.77 Bohr mag/cell
     absolute magnetization    =     3.95 Bohr mag/cell

     iteration # 47     ecut=    40.00 Ry     beta= 0.40
     Davidson diagonalization with overlap

---- Real-time Memory Report at c_bands before calling an iterative solver
            67 MiB given to the printing process from OS
            25 MiB allocation reported by mallinfo(arena+hblkhd)
        485578 MiB available memory on the node where the printing process lives
------------------
     ethr =  5.73E-07,  avg # of iterations =  9.5

     negative rho (up, down):  2.162E-04 1.612E-03

     total cpu time spent up to now is       33.1 secs

     total energy              =    -424.30257249 Ry
     estimated scf accuracy    <       0.00026538 Ry

     total magnetization       =     2.96 Bohr mag/cell
     absolute magnetization    =     3.12 Bohr mag/cell

     iteration # 48     ecut=    40.00 Ry     beta= 0.40
     Davidson diagonalization with overlap

---- Real-time Memory Report at c_bands before calling an iterative solver
            67 MiB given to the printing process from OS
            25 MiB allocation reported by mallinfo(arena+hblkhd)
        485578 MiB available memory on the node where the printing process lives
------------------
     ethr =  5.73E-07,  avg # of iterations =  1.1

     negative rho (up, down):  1.522E-04 1.668E-03

     total cpu time spent up to now is       33.4 secs

     total energy              =    -424.29879262 Ry
     estimated scf accuracy    <       0.00025228 Ry

     total magnetization       =     2.97 Bohr mag/cell
     absolute magnetization    =     3.14 Bohr mag/cell

     iteration # 49     ecut=    40.00 Ry     beta= 0.40
     Davidson diagonalization with overlap

---- Real-time Memory Report at c_bands before calling an iterative solver
            67 MiB given to the printing process from OS
            25 MiB allocation reported by mallinfo(arena+hblkhd)
        485577 MiB available memory on the node where the printing process lives
------------------
     ethr =  5.73E-07,  avg # of iterations =  7.3

     negative rho (up, down):  3.170E-05 1.772E-03

     total cpu time spent up to now is       34.1 secs

     total energy              =    -424.29037618 Ry
     estimated scf accuracy    <       0.00028147 Ry

     total magnetization       =     3.42 Bohr mag/cell
     absolute magnetization    =     3.58 Bohr mag/cell

     iteration # 50     ecut=    40.00 Ry     beta= 0.40
     Davidson diagonalization with overlap

---- Real-time Memory Report at c_bands before calling an iterative solver
            67 MiB given to the printing process from OS
            25 MiB allocation reported by mallinfo(arena+hblkhd)
        485577 MiB available memory on the node where the printing process lives
------------------
     ethr =  5.73E-07,  avg # of iterations =  9.5

     negative rho (up, down):  2.449E-04 1.589E-03

     total cpu time spent up to now is       34.9 secs

     total energy              =    -424.28368525 Ry
     estimated scf accuracy    <       0.00125559 Ry

     total magnetization       =     4.08 Bohr mag/cell
     absolute magnetization    =     4.26 Bohr mag/cell

     iteration # 51     ecut=    40.00 Ry     beta= 0.40
     Davidson diagonalization with overlap

---- Real-time Memory Report at c_bands before calling an iterative solver
            67 MiB given to the printing process from OS
            25 MiB allocation reported by mallinfo(arena+hblkhd)
        485577 MiB available memory on the node where the printing process lives
------------------
     ethr =  5.73E-07,  avg # of iterations = 12.0

     negative rho (up, down):  3.888E-04 1.469E-03

     total cpu time spent up to now is       36.0 secs

     total energy              =    -424.29656656 Ry
     estimated scf accuracy    <       0.00044246 Ry

     total magnetization       =     2.76 Bohr mag/cell
     absolute magnetization    =     2.93 Bohr mag/cell

     iteration # 52     ecut=    40.00 Ry     beta= 0.40
     Davidson diagonalization with overlap

---- Real-time Memory Report at c_bands before calling an iterative solver
            67 MiB given to the printing process from OS
            25 MiB allocation reported by mallinfo(arena+hblkhd)
        485577 MiB available memory on the node where the printing process lives
------------------
     ethr =  5.73E-07,  avg # of iterations = 10.9

     negative rho (up, down):  3.576E-04 1.492E-03

     total cpu time spent up to now is       36.9 secs

     total energy              =    -424.30783261 Ry
     estimated scf accuracy    <       0.00503735 Ry

     total magnetization       =     1.47 Bohr mag/cell
     absolute magnetization    =     2.86 Bohr mag/cell

     iteration # 53     ecut=    40.00 Ry     beta= 0.40
     Davidson diagonalization with overlap

---- Real-time Memory Report at c_bands before calling an iterative solver
            67 MiB given to the printing process from OS
            25 MiB allocation reported by mallinfo(arena+hblkhd)
        485577 MiB available memory on the node where the printing process lives
------------------
     ethr =  5.73E-07,  avg # of iterations =  5.6

     negative rho (up, down):  3.459E-04 1.502E-03

     total cpu time spent up to now is       37.4 secs

     total energy              =    -424.30773781 Ry
     estimated scf accuracy    <       0.00294233 Ry

     total magnetization       =     1.77 Bohr mag/cell
     absolute magnetization    =     2.56 Bohr mag/cell

     iteration # 54     ecut=    40.00 Ry     beta= 0.40
     Davidson diagonalization with overlap

---- Real-time Memory Report at c_bands before calling an iterative solver
            67 MiB given to the printing process from OS
            25 MiB allocation reported by mallinfo(arena+hblkhd)
        485576 MiB available memory on the node where the printing process lives
------------------
     ethr =  5.73E-07,  avg # of iterations =  2.8

     negative rho (up, down):  3.495E-04 1.501E-03

     total cpu time spent up to now is       37.8 secs

     total energy              =    -424.30808233 Ry
     estimated scf accuracy    <       0.00231485 Ry

     total magnetization       =     1.88 Bohr mag/cell
     absolute magnetization    =     2.48 Bohr mag/cell

     iteration # 55     ecut=    40.00 Ry     beta= 0.40
     Davidson diagonalization with overlap

---- Real-time Memory Report at c_bands before calling an iterative solver
            67 MiB given to the printing process from OS
            25 MiB allocation reported by mallinfo(arena+hblkhd)
        485576 MiB available memory on the node where the printing process lives
------------------
     ethr =  5.73E-07,  avg # of iterations =  1.0

     negative rho (up, down):  3.893E-04 1.467E-03

     total cpu time spent up to now is       38.1 secs

     total energy              =    -424.30995864 Ry
     estimated scf accuracy    <       0.00241698 Ry

     total magnetization       =     1.85 Bohr mag/cell
     absolute magnetization    =     2.50 Bohr mag/cell

     iteration # 56     ecut=    40.00 Ry     beta= 0.40
     Davidson diagonalization with overlap

---- Real-time Memory Report at c_bands before calling an iterative solver
            67 MiB given to the printing process from OS
            25 MiB allocation reported by mallinfo(arena+hblkhd)
        485576 MiB available memory on the node where the printing process lives
------------------
     ethr =  5.73E-07,  avg # of iterations =  6.3

     negative rho (up, down):  4.546E-04 1.412E-03

     total cpu time spent up to now is       38.7 secs

     total energy              =    -424.31489123 Ry
     estimated scf accuracy    <       0.00492963 Ry

     total magnetization       =     1.46 Bohr mag/cell
     absolute magnetization    =     2.86 Bohr mag/cell

     iteration # 57     ecut=    40.00 Ry     beta= 0.40
     Davidson diagonalization with overlap

---- Real-time Memory Report at c_bands before calling an iterative solver
            67 MiB given to the printing process from OS
            25 MiB allocation reported by mallinfo(arena+hblkhd)
        485576 MiB available memory on the node where the printing process lives
------------------
     ethr =  5.73E-07,  avg # of iterations =  7.6

     negative rho (up, down):  2.551E-04 1.582E-03

     total cpu time spent up to now is       39.4 secs

     total energy              =    -424.27082815 Ry
     estimated scf accuracy    <       0.01381931 Ry

     total magnetization       =     0.84 Bohr mag/cell
     absolute magnetization    =     3.55 Bohr mag/cell

     iteration # 58     ecut=    40.00 Ry     beta= 0.40
     Davidson diagonalization with overlap

---- Real-time Memory Report at c_bands before calling an iterative solver
            67 MiB given to the printing process from OS
            25 MiB allocation reported by mallinfo(arena+hblkhd)
        485576 MiB available memory on the node where the printing process lives
------------------
     ethr =  5.73E-07,  avg # of iterations = 11.9

     negative rho (up, down):  2.240E-04 1.610E-03

     total cpu time spent up to now is       40.3 secs

     total energy              =    -424.30217206 Ry
     estimated scf accuracy    <       0.00041009 Ry

     total magnetization       =     2.69 Bohr mag/cell
     absolute magnetization    =     2.86 Bohr mag/cell

     iteration # 59     ecut=    40.00 Ry     beta= 0.40
     Davidson diagonalization with overlap

---- Real-time Memory Report at c_bands before calling an iterative solver
            67 MiB given to the printing process from OS
            25 MiB allocation reported by mallinfo(arena+hblkhd)
        485576 MiB available memory on the node where the printing process lives
------------------
     ethr =  5.73E-07,  avg # of iterations =  5.7

     negative rho (up, down):  1.237E-04 1.696E-03

     total cpu time spent up to now is       40.9 secs

     total energy              =    -424.29485543 Ry
     estimated scf accuracy    <       0.00027799 Ry

     total magnetization       =     2.93 Bohr mag/cell
     absolute magnetization    =     3.09 Bohr mag/cell

     iteration # 60     ecut=    40.00 Ry     beta= 0.40
     Davidson diagonalization with overlap

---- Real-time Memory Report at c_bands before calling an iterative solver
            67 MiB given to the printing process from OS
            25 MiB allocation reported by mallinfo(arena+hblkhd)
        485576 MiB available memory on the node where the printing process lives
------------------
     ethr =  5.73E-07,  avg # of iterations =  8.8

     negative rho (up, down):  4.926E-06 1.798E-03

     total cpu time spent up to now is       41.7 secs

     total energy              =    -424.28960936 Ry
     estimated scf accuracy    <       0.00031516 Ry

     total magnetization       =     3.59 Bohr mag/cell
     absolute magnetization    =     3.76 Bohr mag/cell

     iteration # 61     ecut=    40.00 Ry     beta= 0.40
     Davidson diagonalization with overlap

---- Real-time Memory Report at c_bands before calling an iterative solver
            67 MiB given to the printing process from OS
            25 MiB allocation reported by mallinfo(arena+hblkhd)
        485575 MiB available memory on the node where the printing process lives
------------------
     ethr =  5.73E-07,  avg # of iterations = 10.0

     negative rho (up, down):  5.440E-05 1.755E-03

     total cpu time spent up to now is       42.6 secs

     total energy              =    -424.29715431 Ry
     estimated scf accuracy    <       0.00162210 Ry

     total magnetization       =     4.20 Bohr mag/cell
     absolute magnetization    =     4.39 Bohr mag/cell

     iteration # 62     ecut=    40.00 Ry     beta= 0.40
     Davidson diagonalization with overlap

---- Real-time Memory Report at c_bands before calling an iterative solver
            67 MiB given to the printing process from OS
            25 MiB allocation reported by mallinfo(arena+hblkhd)
        485575 MiB available memory on the node where the printing process lives
------------------
     ethr =  5.73E-07,  avg # of iterations =  6.1

     negative rho (up, down):  2.131E-04 1.617E-03

     total cpu time spent up to now is       43.2 secs

     total energy              =    -424.29149728 Ry
     estimated scf accuracy    <       0.00086306 Ry

     total magnetization       =     3.96 Bohr mag/cell
     absolute magnetization    =     4.14 Bohr mag/cell

     iteration # 63     ecut=    40.00 Ry     beta= 0.40
     Davidson diagonalization with overlap

---- Real-time Memory Report at c_bands before calling an iterative solver
            67 MiB given to the printing process from OS
            25 MiB allocation reported by mallinfo(arena+hblkhd)
        485575 MiB available memory on the node where the printing process lives
------------------
     ethr =  5.73E-07,  avg # of iterations = 11.1

     negative rho (up, down):  1.920E-04 1.636E-03

     total cpu time spent up to now is       44.2 secs

     total energy              =    -424.30177033 Ry
     estimated scf accuracy    <       0.00027960 Ry

     total magnetization       =     3.00 Bohr mag/cell
     absolute magnetization    =     3.16 Bohr mag/cell

     iteration # 64     ecut=    40.00 Ry     beta= 0.40
     Davidson diagonalization with overlap

---- Real-time Memory Report at c_bands before calling an iterative solver
            67 MiB given to the printing process from OS
            25 MiB allocation reported by mallinfo(arena+hblkhd)
        485575 MiB available memory on the node where the printing process lives
------------------
     ethr =  5.73E-07,  avg # of iterations =  3.5

     negative rho (up, down):  2.811E-04 1.558E-03

     total cpu time spent up to now is       44.6 secs

     total energy              =    -424.29997999 Ry
     estimated scf accuracy    <       0.00023799 Ry

     total magnetization       =     3.15 Bohr mag/cell
     absolute magnetization    =     3.31 Bohr mag/cell

     iteration # 65     ecut=    40.00 Ry     beta= 0.40
     Davidson diagonalization with overlap

---- Real-time Memory Report at c_bands before calling an iterative solver
            67 MiB given to the printing process from OS
            25 MiB allocation reported by mallinfo(arena+hblkhd)
[...]

     iteration # 80     ecut=    40.00 Ry     beta= 0.40
     Davidson diagonalization with overlap

---- Real-time Memory Report at c_bands before calling an iterative solver
            68 MiB given to the printing process from OS
            25 MiB allocation reported by mallinfo(arena+hblkhd)
        485568 MiB available memory on the node where the printing process lives
------------------
     ethr =  5.43E-07,  avg # of iterations = 11.6

     negative rho (up, down):  0.000E+00 2.089E-03

     total cpu time spent up to now is       56.1 secs

     total energy              =    -424.28813216 Ry
     estimated scf accuracy    <       0.00953308 Ry

     total magnetization       =     4.86 Bohr mag/cell
     absolute magnetization    =     5.08 Bohr mag/cell

     iteration # 81     ecut=    40.00 Ry     beta= 0.40
     Davidson diagonalization with overlap

---- Real-time Memory Report at c_bands before calling an iterative solver
            68 MiB given to the printing process from OS
            25 MiB allocation reported by mallinfo(arena+hblkhd)
        485568 MiB available memory on the node where the printing process lives
------------------
     ethr =  5.43E-07,  avg # of iterations =  9.9

     negative rho (up, down):  3.386E-05 1.757E-03

     total cpu time spent up to now is       57.0 secs

     total energy              =    -424.29536774 Ry
     estimated scf accuracy    <       0.00303550 Ry

     total magnetization       =     4.36 Bohr mag/cell
     absolute magnetization    =     4.56 Bohr mag/cell

     iteration # 82     ecut=    40.00 Ry     beta= 0.40
     Davidson diagonalization with overlap

---- Real-time Memory Report at c_bands before calling an iterative solver
            68 MiB given to the printing process from OS
            25 MiB allocation reported by mallinfo(arena+hblkhd)
        485568 MiB available memory on the node where the printing process lives
------------------
     ethr =  5.43E-07,  avg # of iterations =  8.1

     negative rho (up, down):  1.989E-04 1.623E-03

     total cpu time spent up to now is       57.8 secs

     total energy              =    -424.29043422 Ry
     estimated scf accuracy    <       0.00163267 Ry

     total magnetization       =     4.04 Bohr mag/cell
     absolute magnetization    =     4.23 Bohr mag/cell

     iteration # 83     ecut=    40.00 Ry     beta= 0.40
     Davidson diagonalization with overlap

---- Real-time Memory Report at c_bands before calling an iterative solver
            68 MiB given to the printing process from OS
            25 MiB allocation reported by mallinfo(arena+hblkhd)
        485567 MiB available memory on the node where the printing process lives
------------------
     ethr =  5.43E-07,  avg # of iterations = 12.1

     negative rho (up, down):  3.034E-04 1.529E-03

     total cpu time spent up to now is       58.8 secs

     total energy              =    -424.29880358 Ry
     estimated scf accuracy    <       0.00044022 Ry

     total magnetization       =     3.09 Bohr mag/cell
     absolute magnetization    =     3.25 Bohr mag/cell

     iteration # 84     ecut=    40.00 Ry     beta= 0.40
     Davidson diagonalization with overlap

---- Real-time Memory Report at c_bands before calling an iterative solver
            68 MiB given to the printing process from OS
            25 MiB allocation reported by mallinfo(arena+hblkhd)
        485567 MiB available memory on the node where the printing process lives
------------------
     ethr =  5.43E-07,  avg # of iterations =  9.2

     negative rho (up, down):  2.972E-04 1.530E-03

     total cpu time spent up to now is       59.6 secs

     total energy              =    -424.30528525 Ry
     estimated scf accuracy    <       0.00139996 Ry

     total magnetization       =     2.22 Bohr mag/cell
     absolute magnetization    =     2.50 Bohr mag/cell

     iteration # 85     ecut=    40.00 Ry     beta= 0.40
     Davidson diagonalization with overlap

---- Real-time Memory Report at c_bands before calling an iterative solver
            68 MiB given to the printing process from OS
            25 MiB allocation reported by mallinfo(arena+hblkhd)
        485567 MiB available memory on the node where the printing process lives
------------------
     ethr =  5.43E-07,  avg # of iterations =  1.5

     negative rho (up, down):  2.359E-04 1.591E-03

     total cpu time spent up to now is       60.0 secs

     total energy              =    -424.30050997 Ry
     estimated scf accuracy    <       0.00172068 Ry

     total magnetization       =     2.28 Bohr mag/cell
     absolute magnetization    =     2.52 Bohr mag/cell

     iteration # 86     ecut=    40.00 Ry     beta= 0.40
     Davidson diagonalization with overlap

---- Real-time Memory Report at c_bands before calling an iterative solver
            68 MiB given to the printing process from OS
            25 MiB allocation reported by mallinfo(arena+hblkhd)
        485566 MiB available memory on the node where the printing process lives
------------------
     ethr =  5.43E-07,  avg # of iterations =  7.4

     negative rho (up, down):  2.639E-04 1.570E-03

     total cpu time spent up to now is       60.6 secs

     total energy              =    -424.30350775 Ry
     estimated scf accuracy    <       0.00051438 Ry

     total magnetization       =     2.81 Bohr mag/cell
     absolute magnetization    =     2.97 Bohr mag/cell

     iteration # 87     ecut=    40.00 Ry     beta= 0.40
     Davidson diagonalization with overlap

---- Real-time Memory Report at c_bands before calling an iterative solver
            68 MiB given to the printing process from OS
            25 MiB allocation reported by mallinfo(arena+hblkhd)
        485566 MiB available memory on the node where the printing process lives
------------------
     ethr =  5.43E-07,  avg # of iterations =  5.6

     negative rho (up, down):  2.684E-04 1.567E-03

     total cpu time spent up to now is       61.1 secs

     total energy              =    -424.30412740 Ry
     estimated scf accuracy    <       0.00064485 Ry

     total magnetization       =     2.59 Bohr mag/cell
     absolute magnetization    =     2.77 Bohr mag/cell

     iteration # 88     ecut=    40.00 Ry     beta= 0.40
     Davidson diagonalization with overlap

---- Real-time Memory Report at c_bands before calling an iterative solver
            68 MiB given to the printing process from OS
            25 MiB allocation reported by mallinfo(arena+hblkhd)
        485566 MiB available memory on the node where the printing process lives
------------------
     ethr =  5.43E-07,  avg # of iterations =  1.1

     negative rho (up, down):  3.329E-04 1.512E-03

     total cpu time spent up to now is       61.5 secs

     total energy              =    -424.30415611 Ry
     estimated scf accuracy    <       0.00072479 Ry

     total magnetization       =     2.56 Bohr mag/cell
     absolute magnetization    =     2.74 Bohr mag/cell

     iteration # 89     ecut=    40.00 Ry     beta= 0.40
     Davidson diagonalization with overlap

---- Real-time Memory Report at c_bands before calling an iterative solver
            68 MiB given to the printing process from OS
            25 MiB allocation reported by mallinfo(arena+hblkhd)
        485566 MiB available memory on the node where the printing process lives
------------------
     ethr =  5.43E-07,  avg # of iterations =  8.0

     negative rho (up, down):  2.731E-04 1.563E-03

     total cpu time spent up to now is       62.2 secs

     total energy              =    -424.30168071 Ry
     estimated scf accuracy    <       0.00204270 Ry

     total magnetization       =     1.98 Bohr mag/cell
     absolute magnetization    =     2.45 Bohr mag/cell

     iteration # 90     ecut=    40.00 Ry     beta= 0.40
     Davidson diagonalization with overlap

---- Real-time Memory Report at c_bands before calling an iterative solver
            68 MiB given to the printing process from OS
            25 MiB allocation reported by mallinfo(arena+hblkhd)
        485566 MiB available memory on the node where the printing process lives
------------------
     ethr =  5.43E-07,  avg # of iterations =  6.9

     negative rho (up, down):  2.748E-04 1.561E-03

     total cpu time spent up to now is       62.8 secs

     total energy              =    -424.30437510 Ry
     estimated scf accuracy    <       0.00068787 Ry

     total magnetization       =     2.51 Bohr mag/cell
     absolute magnetization    =     2.70 Bohr mag/cell

     iteration # 91     ecut=    40.00 Ry     beta= 0.40
     Davidson diagonalization with overlap

---- Real-time Memory Report at c_bands before calling an iterative solver
            68 MiB given to the printing process from OS
            25 MiB allocation reported by mallinfo(arena+hblkhd)
        485566 MiB available memory on the node where the printing process lives
------------------
     ethr =  5.43E-07,  avg # of iterations =  1.1

     negative rho (up, down):  1.686E-04 1.651E-03

     total cpu time spent up to now is       63.1 secs

     total energy              =    -424.29443325 Ry
     estimated scf accuracy    <       0.00067372 Ry

     total magnetization       =     2.50 Bohr mag/cell
     absolute magnetization    =     2.69 Bohr mag/cell

     iteration # 92     ecut=    40.00 Ry     beta= 0.40
     Davidson diagonalization with overlap

---- Real-time Memory Report at c_bands before calling an iterative solver
            68 MiB given to the printing process from OS
            25 MiB allocation reported by mallinfo(arena+hblkhd)
        485566 MiB available memory on the node where the printing process lives
------------------
     ethr =  5.43E-07,  avg # of iterations =  8.9

     negative rho (up, down):  1.563E-04 1.662E-03

     total cpu time spent up to now is       63.9 secs

     total energy              =    -424.30112472 Ry
     estimated scf accuracy    <       0.00029591 Ry

     total magnetization       =     3.30 Bohr mag/cell
     absolute magnetization    =     3.46 Bohr mag/cell

     iteration # 93     ecut=    40.00 Ry     beta= 0.40
     Davidson diagonalization with overlap

---- Real-time Memory Report at c_bands before calling an iterative solver
            68 MiB given to the printing process from OS
            25 MiB allocation reported by mallinfo(arena+hblkhd)
        485566 MiB available memory on the node where the printing process lives
------------------
     ethr =  5.43E-07,  avg # of iterations =  3.2

     negative rho (up, down):  1.515E-04 1.667E-03

     total cpu time spent up to now is       64.4 secs

     total energy              =    -424.30107338 Ry
     estimated scf accuracy    <       0.00031373 Ry

     total magnetization       =     3.38 Bohr mag/cell
     absolute magnetization    =     3.54 Bohr mag/cell

     iteration # 94     ecut=    40.00 Ry     beta= 0.40
     Davidson diagonalization with overlap

---- Real-time Memory Report at c_bands before calling an iterative solver
            68 MiB given to the printing process from OS
            25 MiB allocation reported by mallinfo(arena+hblkhd)
        485566 MiB available memory on the node where the printing process lives
------------------
     ethr =  5.43E-07,  avg # of iterations =  1.5

     negative rho (up, down):  1.504E-04 1.668E-03

     total cpu time spent up to now is       64.7 secs

     total energy              =    -424.30106350 Ry
     estimated scf accuracy    <       0.00033393 Ry

     total magnetization       =     3.41 Bohr mag/cell
     absolute magnetization    =     3.57 Bohr mag/cell

     iteration # 95     ecut=    40.00 Ry     beta= 0.40
     Davidson diagonalization with overlap

---- Real-time Memory Report at c_bands before calling an iterative solver
            68 MiB given to the printing process from OS
            25 MiB allocation reported by mallinfo(arena+hblkhd)
        485566 MiB available memory on the node where the printing process lives
------------------
     ethr =  5.43E-07,  avg # of iterations =  1.0

     negative rho (up, down):  1.529E-04 1.666E-03

     total cpu time spent up to now is       65.0 secs

     total energy              =    -424.30112496 Ry
     estimated scf accuracy    <       0.00033416 Ry

     total magnetization       =     3.42 Bohr mag/cell
     absolute magnetization    =     3.58 Bohr mag/cell

     iteration # 96     ecut=    40.00 Ry     beta= 0.40
     Davidson diagonalization with overlap

---- Real-time Memory Report at c_bands before calling an iterative solver
            68 MiB given to the printing process from OS
            25 MiB allocation reported by mallinfo(arena+hblkhd)
        485566 MiB available memory on the node where the printing process lives
------------------
     ethr =  5.43E-07,  avg # of iterations =  1.0

     negative rho (up, down):  1.314E-04 1.685E-03

     total cpu time spent up to now is       65.3 secs

     total energy              =    -424.30034630 Ry
     estimated scf accuracy    <       0.00032698 Ry

     total magnetization       =     3.40 Bohr mag/cell
     absolute magnetization    =     3.57 Bohr mag/cell

     iteration # 97     ecut=    40.00 Ry     beta= 0.40
     Davidson diagonalization with overlap

---- Real-time Memory Report at c_bands before calling an iterative solver
            68 MiB given to the printing process from OS
            25 MiB allocation reported by mallinfo(arena+hblkhd)
        485566 MiB available memory on the node where the printing process lives
------------------
     ethr =  5.43E-07,  avg # of iterations =  5.6

     negative rho (up, down):  7.210E-05 1.735E-03

     total cpu time spent up to now is       65.8 secs

     total energy              =    -424.29710376 Ry
     estimated scf accuracy    <       0.00043057 Ry

     total magnetization       =     3.54 Bohr mag/cell
     absolute magnetization    =     3.71 Bohr mag/cell

     iteration # 98     ecut=    40.00 Ry     beta= 0.40
     Davidson diagonalization with overlap

---- Real-time Memory Report at c_bands before calling an iterative solver
            68 MiB given to the printing process from OS
            25 MiB allocation reported by mallinfo(arena+hblkhd)
        485565 MiB available memory on the node where the printing process lives
------------------
     ethr =  5.43E-07,  avg # of iterations =  7.8

     negative rho (up, down):  1.164E-04 1.694E-03

     total cpu time spent up to now is       66.5 secs

     total energy              =    -424.29938203 Ry
     estimated scf accuracy    <       0.00101430 Ry

     total magnetization       =     3.87 Bohr mag/cell
     absolute magnetization    =     4.05 Bohr mag/cell

     iteration # 99     ecut=    40.00 Ry     beta= 0.40
     Davidson diagonalization with overlap

---- Real-time Memory Report at c_bands before calling an iterative solver
            68 MiB given to the printing process from OS
            25 MiB allocation reported by mallinfo(arena+hblkhd)
        485565 MiB available memory on the node where the printing process lives
------------------
     ethr =  5.43E-07,  avg # of iterations =  6.1

     negative rho (up, down):  2.482E-04 1.581E-03

     total cpu time spent up to now is       67.1 secs

     total energy              =    -424.29453448 Ry
     estimated scf accuracy    <       0.00062181 Ry

     total magnetization       =     3.62 Bohr mag/cell
     absolute magnetization    =     3.79 Bohr mag/cell

     iteration #100     ecut=    40.00 Ry     beta= 0.40
     Davidson diagonalization with overlap

---- Real-time Memory Report at c_bands before calling an iterative solver
            68 MiB given to the printing process from OS
            25 MiB allocation reported by mallinfo(arena+hblkhd)
        485565 MiB available memory on the node where the printing process lives
------------------
     ethr =  5.43E-07,  avg # of iterations = 10.1

     negative rho (up, down):  2.485E-04 1.581E-03

     total cpu time spent up to now is       68.0 secs

     total energy              =    -424.30349364 Ry
     estimated scf accuracy    <       0.00042205 Ry

     total magnetization       =     2.71 Bohr mag/cell
     absolute magnetization    =     2.88 Bohr mag/cell

     End of self-consistent calculation

     convergence NOT achieved after 100 iterations: stopping

     Writing config to output data dir ./out/aiida.save/ :
     XML data file, charge density

     init_run     :      0.99s CPU      1.03s WALL (       1 calls)
     electrons    :     62.98s CPU     66.35s WALL (       1 calls)

     Called by init_run:
     wfcinit      :      0.16s CPU      0.17s WALL (       1 calls)
     wfcinit:atom :      0.00s CPU      0.00s WALL (      21 calls)
     wfcinit:wfcr :      0.14s CPU      0.16s WALL (      21 calls)
     potinit      :      0.29s CPU      0.30s WALL (       1 calls)
     hinit0       :      0.51s CPU      0.52s WALL (       1 calls)

     Called by electrons:
     c_bands      :     54.86s CPU     57.70s WALL (     100 calls)
     sum_band     :      5.48s CPU      5.80s WALL (     100 calls)
     v_of_rho     :      1.37s CPU      1.43s WALL (     101 calls)
     v_h          :      0.03s CPU      0.03s WALL (     101 calls)
     v_xc         :      1.34s CPU      1.39s WALL (     101 calls)
     newd         :      0.83s CPU      0.83s WALL (     101 calls)
     mix_rho      :      0.22s CPU      0.22s WALL (     100 calls)

     Called by c_bands:
     init_us_2    :      0.44s CPU      0.45s WALL (    4221 calls)
     init_us_2:cp :      0.42s CPU      0.44s WALL (    4221 calls)
     cegterg      :     41.15s CPU     43.35s WALL (    2100 calls)

     Called by sum_band:
     sum_band:wei :      0.12s CPU      0.12s WALL (     100 calls)
     sum_band:loo :      3.81s CPU      4.08s WALL (     100 calls)
     sum_band:buf :      0.03s CPU      0.03s WALL (    2100 calls)
     sum_band:ini :      0.20s CPU      0.22s WALL (    2100 calls)
     sum_band:cal :      0.37s CPU      0.39s WALL (    2100 calls)
     sum_band:bec :      0.03s CPU      0.03s WALL (    2100 calls)
     addusdens    :      1.18s CPU      1.19s WALL (     100 calls)
                                        0.00s GPU  (     100 calls)
     addusd:skk   :      0.00s CPU      0.00s WALL (     400 calls)
                                        0.00s GPU  (     400 calls)

     Called by *egterg:
     cdiaghg      :      9.86s CPU     10.05s WALL (   14338 calls)
     cegterg:over :      1.56s CPU      1.60s WALL (   12238 calls)
     cegterg:upda :      0.74s CPU      0.75s WALL (   12238 calls)
     cegterg:last :      1.35s CPU      1.38s WALL (    6336 calls)
     h_psi        :     25.69s CPU     27.51s WALL (   14359 calls)
     s_psi        :      1.18s CPU      1.23s WALL (   14359 calls)
     g_psi        :      0.09s CPU      0.10s WALL (   12238 calls)

     Called by h_psi:
     h_psi:calbec :      1.68s CPU      1.81s WALL (   14359 calls)
     vloc_psi     :     22.60s CPU     24.20s WALL (   14359 calls)
     add_vuspsi   :      1.28s CPU      1.33s WALL (   14359 calls)

     General routines
     calbec       :      2.01s CPU      2.16s WALL (   16459 calls)
     fft          :      0.89s CPU      0.97s WALL (    2523 calls)
     ffts         :      0.32s CPU      0.32s WALL (     402 calls)
     fftw         :     22.07s CPU     23.53s WALL (  416420 calls)
     interpolate  :      0.33s CPU      0.35s WALL (     202 calls)
     davcio       :      0.00s CPU      0.01s WALL (      39 calls)

     Parallel routines

     PWSCF        :   1m 4.35s CPU   1m 8.02s WALL


   This run was terminated on:  20:29:17  29Nov2023            

=------------------------------------------------------------------------------=
   JOB DONE.
=------------------------------------------------------------------------------=
