
     Program PWSCF v.7.2 starts on 23Oct2023 at 18: 9:22 

     This program is part of the open-source Quantum ESPRESSO suite
     for quantum simulation of materials; please cite
         "P. Giannozzi et al., J. Phys.:Condens. Matter 21 395502 (2009);
         "P. Giannozzi et al., J. Phys.:Condens. Matter 29 465901 (2017);
         "P. Giannozzi et al., J. Chem. Phys. 152 154105 (2020);
          URL http://www.quantum-espresso.org", 
     in publications or presentations arising from this work. More details at
     http://www.quantum-espresso.org/quote

     Parallel version (MPI & OpenMP), running on      12 processor cores
     Number of MPI processes:                 1
     Threads/MPI process:                    12

     MPI processes distributed on     1 nodes
     60523 MiB available memory on the printing compute node when the environment starts
 
     Reading input from aiida.in

     Current dimensions of program PWSCF are:
     Max number of different atomic species (ntypx) = 10
     Max number of k-points (npk) =  40000
     Max angular momentum in pseudopotentials (lmaxx) =  4
     Message from routine setup:
     using ibrav=0 with symmetry is DISCOURAGED, use correct ibrav instead
 
     Subspace diagonalization in iterative solution of the eigenvalue problem:
     a serial algorithm will be used

 
     G-vector sticks info
     --------------------
     sticks:   dense  smooth     PW     G-vecs:    dense   smooth      PW
     Sum        2735    1357    395               153009    54091    8449
 
     Using Slab Decomposition
 


     bravais-lattice index     =            0
     lattice parameter (alat)  =       8.4847  a.u.
     unit-cell volume          =     861.5049 (a.u.)^3
     number of atoms/cell      =            8
     number of atomic types    =            3
     number of electrons       =        58.00
     number of Kohn-Sham states=           35
     kinetic-energy cutoff     =      60.0000  Ry
     charge density cutoff     =     480.0000  Ry
     scf convergence threshold =      1.6E-09
     mixing beta               =       0.4000
     number of iterations used =            8  plain     mixing
     Exchange-correlation= SLA  PW   PSX  PSC
                           (   1   4  10   8   0   0   0)

     GPU acceleration is ACTIVE.


     GPU used by master process:

        Device Number: 0
        Device name: Tesla P100-PCIE-16GB
        Compute capability : 60
        Ratio of single to double precision performance  : 2
        Memory Clock Rate (KHz): 715000
        Memory Bus Width (bits): 4096
        Peak Memory Bandwidth (GB/s): 732.16

     celldm(1)=   8.484718  celldm(2)=   0.000000  celldm(3)=   0.000000
     celldm(4)=   0.000000  celldm(5)=   0.000000  celldm(6)=   0.000000

     crystal axes: (cart. coord. in units of alat)
               a(1) = (   0.749568   0.661927   0.000000 )  
               a(2) = (  -0.749568   0.661927   0.000000 )  
               a(3) = (  -0.029276   0.000000   1.421328 )  

     reciprocal axes: (cart. coord. in units 2 pi/alat)
               b(1) = (  0.667051  0.755370  0.013740 )  
               b(2) = ( -0.667051  0.755370 -0.013740 )  
               b(3) = (  0.000000 -0.000000  0.703568 )  


     PseudoPot. # 1 for Li read from file:
     ./pseudo/li_pbesol_v1.4.uspp.F.UPF
     MD5 check sum: aa28d9aeea6a965f2dc95ee9517b3536
     Pseudo is Ultrasoft, Zval =  3.0
     Generated by new atomic code, or converted to UPF format
     Using radial grid of  751 points,  5 beta functions with: 
                l(1) =   0
                l(2) =   0
                l(3) =   0
                l(4) =   1
                l(5) =   1
     Q(r) pseudized with 10 coefficients,  rinner =    1.150   1.150   1.150


     PseudoPot. # 2 for N  read from file:
     ./pseudo/N.pbesol-theos.UPF
     MD5 check sum: 1b64827339d390a5a22afef3ff345c9d
     Pseudo is Ultrasoft + core correction, Zval =  5.0
     Generated using "atomic" code by A. Dal Corso  v.5.1
     Using radial grid of 1085 points,  4 beta functions with: 
                l(1) =   0
                l(2) =   0
                l(3) =   1
                l(4) =   1
     Q(r) pseudized with 0 coefficients 


     PseudoPot. # 3 for Na read from file:
     ./pseudo/na_pbesol_v1.5.uspp.F.UPF
     MD5 check sum: 164b46c7694b4bc5b1217b5d1ae6f423
     Pseudo is Ultrasoft, Zval =  9.0
     Generated by new atomic code, or converted to UPF format
     Using radial grid of  819 points,  5 beta functions with: 
                l(1) =   0
                l(2) =   0
                l(3) =   1
                l(4) =   1
                l(5) =   2
     Q(r) pseudized with  8 coefficients,  rinner =    1.250   1.250   1.250
                                                       1.250   1.250

     atomic species   valence    mass     pseudopotential
        Li             3.00     6.94100     Li( 1.00)
        N              5.00    14.00670     N ( 1.00)
        Na             9.00    22.98977     Na( 1.00)

     Starting magnetic structure 
     atomic species   magnetization
        Li           0.100
        N            0.100
        Na           0.100

      2 Sym. Ops. (no inversion) found


                                    s                        frac. trans.

      isym =  1     identity                                     

 cryst.   s( 1) = (     1          0          0      )
                  (     0          1          0      )
                  (     0          0          1      )

 cart.    s( 1) = (  1.0000000  0.0000000 -0.0000000 )
                  ( -0.0000000  1.0000000 -0.0000000 )
                  (  0.0000000  0.0000000  1.0000000 )


      isym =  2     180 deg rotation - cart. axis [0,1,0]        

 cryst.   s( 2) = (     0          1          0      )
                  (     1          0          0      )
                  (     0          0         -1      )

 cart.    s( 2) = ( -1.0000000  0.0000000  0.0000000 )
                  (  0.0000000  1.0000000  0.0000000 )
                  (  0.0000000  0.0000000 -1.0000000 )


   Cartesian axes

     site n.     atom                  positions (alat units)
         1           Na  tau(   1) = (   0.4204617   0.2012259   0.3297480  )
         2           Na  tau(   2) = (   1.0493982   0.2012259   1.0915797  )
         3           Na  tau(   3) = (   0.7349299   0.5507235   0.7106638  )
         4           Na  tau(   4) = (   0.7349299   1.1689636   0.7106638  )
         5           Na  tau(   5) = (   0.7495681   1.1504296   0.0000000  )
         6           Li  tau(   6) = (   0.7495681   0.5388088   0.0000000  )
         7           N   tau(   7) = (   0.3824290   0.1985782   1.0844730  )
         8           N   tau(   8) = (   1.0874309   0.1985782   0.3368547  )

   Crystallographic axes

     site n.     atom                  positions (cryst. coord.)
         1           Na  tau(   1) = (  0.4370000 -0.1330000  0.2320000  )
         2           Na  tau(   2) = (  0.8670000 -0.5630000  0.7680000  )
         3           Na  tau(   3) = (  0.9160000 -0.0840000  0.5000000  )
         4           Na  tau(   4) = (  1.3830000  0.3830000  0.5000000  )
         5           Na  tau(   5) = (  1.3690000  0.3690000  0.0000000  )
         6           Li  tau(   6) = (  0.9070000 -0.0930000  0.0000000  )
         7           N   tau(   7) = (  0.4200000 -0.1200000  0.7630000  )
         8           N   tau(   8) = (  0.8800000 -0.5800000  0.2370000  )

     number of k points=   196  Marzari-Vanderbilt smearing, width (Ry)=  0.0100
                       cart. coord. in units 2pi/alat
        k(    1) = (   0.0000000   0.0000000   0.0000000), wk =   0.0014286
        k(    2) = (   0.0000000   0.0000000   0.1005096), wk =   0.0028571
        k(    3) = (   0.0000000   0.0000000   0.2010193), wk =   0.0028571
        k(    4) = (   0.0000000   0.0000000   0.3015289), wk =   0.0028571
        k(    5) = (  -0.0667051   0.0755370  -0.0013740), wk =   0.0057143
        k(    6) = (  -0.0667051   0.0755370   0.0991357), wk =   0.0057143
        k(    7) = (  -0.0667051   0.0755370   0.1996453), wk =   0.0057143
        k(    8) = (  -0.0667051   0.0755370   0.3001550), wk =   0.0057143
        k(    9) = (  -0.0667051   0.0755370  -0.3029029), wk =   0.0057143
        k(   10) = (  -0.0667051   0.0755370  -0.2023933), wk =   0.0057143
        k(   11) = (  -0.0667051   0.0755370  -0.1018836), wk =   0.0057143
        k(   12) = (  -0.1334102   0.1510740  -0.0027480), wk =   0.0057143
        k(   13) = (  -0.1334102   0.1510740   0.0977617), wk =   0.0057143
        k(   14) = (  -0.1334102   0.1510740   0.1982713), wk =   0.0057143
        k(   15) = (  -0.1334102   0.1510740   0.2987810), wk =   0.0057143
        k(   16) = (  -0.1334102   0.1510740  -0.3042769), wk =   0.0057143
        k(   17) = (  -0.1334102   0.1510740  -0.2037673), wk =   0.0057143
        k(   18) = (  -0.1334102   0.1510740  -0.1032576), wk =   0.0057143
        k(   19) = (  -0.2001153   0.2266110  -0.0041219), wk =   0.0057143
        k(   20) = (  -0.2001153   0.2266110   0.0963877), wk =   0.0057143
        k(   21) = (  -0.2001153   0.2266110   0.1968974), wk =   0.0057143
        k(   22) = (  -0.2001153   0.2266110   0.2974070), wk =   0.0057143
        k(   23) = (  -0.2001153   0.2266110  -0.3056509), wk =   0.0057143
        k(   24) = (  -0.2001153   0.2266110  -0.2051412), wk =   0.0057143
        k(   25) = (  -0.2001153   0.2266110  -0.1046316), wk =   0.0057143
        k(   26) = (  -0.2668203   0.3021480  -0.0054959), wk =   0.0057143
        k(   27) = (  -0.2668203   0.3021480   0.0950137), wk =   0.0057143
        k(   28) = (  -0.2668203   0.3021480   0.1955234), wk =   0.0057143
        k(   29) = (  -0.2668203   0.3021480   0.2960330), wk =   0.0057143
        k(   30) = (  -0.2668203   0.3021480  -0.3070249), wk =   0.0057143
        k(   31) = (  -0.2668203   0.3021480  -0.2065152), wk =   0.0057143
        k(   32) = (  -0.2668203   0.3021480  -0.1060056), wk =   0.0057143
        k(   33) = (   0.3335254  -0.3776850   0.0068699), wk =   0.0028571
        k(   34) = (   0.3335254  -0.3776850   0.1073795), wk =   0.0057143
        k(   35) = (   0.3335254  -0.3776850   0.2078892), wk =   0.0057143
        k(   36) = (   0.3335254  -0.3776850   0.3083988), wk =   0.0057143
        k(   37) = (   0.0000000   0.1510740   0.0000000), wk =   0.0028571
        k(   38) = (   0.0000000   0.1510740   0.1005096), wk =   0.0057143
        k(   39) = (   0.0000000   0.1510740   0.2010193), wk =   0.0057143
        k(   40) = (   0.0000000   0.1510740   0.3015289), wk =   0.0057143
        k(   41) = (  -0.0667051   0.2266110  -0.0013740), wk =   0.0057143
        k(   42) = (  -0.0667051   0.2266110   0.0991357), wk =   0.0057143
        k(   43) = (  -0.0667051   0.2266110   0.1996453), wk =   0.0057143
        k(   44) = (  -0.0667051   0.2266110   0.3001550), wk =   0.0057143
        k(   45) = (  -0.0667051   0.2266110  -0.3029029), wk =   0.0057143
        k(   46) = (  -0.0667051   0.2266110  -0.2023933), wk =   0.0057143
        k(   47) = (  -0.0667051   0.2266110  -0.1018836), wk =   0.0057143
        k(   48) = (  -0.1334102   0.3021480  -0.0027480), wk =   0.0057143
        k(   49) = (  -0.1334102   0.3021480   0.0977617), wk =   0.0057143
        k(   50) = (  -0.1334102   0.3021480   0.1982713), wk =   0.0057143
        k(   51) = (  -0.1334102   0.3021480   0.2987810), wk =   0.0057143
        k(   52) = (  -0.1334102   0.3021480  -0.3042769), wk =   0.0057143
        k(   53) = (  -0.1334102   0.3021480  -0.2037673), wk =   0.0057143
        k(   54) = (  -0.1334102   0.3021480  -0.1032576), wk =   0.0057143
        k(   55) = (  -0.2001153   0.3776850  -0.0041219), wk =   0.0057143
        k(   56) = (  -0.2001153   0.3776850   0.0963877), wk =   0.0057143
        k(   57) = (  -0.2001153   0.3776850   0.1968974), wk =   0.0057143
        k(   58) = (  -0.2001153   0.3776850   0.2974070), wk =   0.0057143
        k(   59) = (  -0.2001153   0.3776850  -0.3056509), wk =   0.0057143
        k(   60) = (  -0.2001153   0.3776850  -0.2051412), wk =   0.0057143
        k(   61) = (  -0.2001153   0.3776850  -0.1046316), wk =   0.0057143
        k(   62) = (   0.4002305  -0.3021480   0.0082439), wk =   0.0057143
        k(   63) = (   0.4002305  -0.3021480   0.1087535), wk =   0.0057143
        k(   64) = (   0.4002305  -0.3021480   0.2092632), wk =   0.0057143
        k(   65) = (   0.4002305  -0.3021480   0.3097728), wk =   0.0057143
        k(   66) = (   0.4002305  -0.3021480  -0.2932851), wk =   0.0057143
        k(   67) = (   0.4002305  -0.3021480  -0.1927754), wk =   0.0057143
        k(   68) = (   0.4002305  -0.3021480  -0.0922658), wk =   0.0057143
        k(   69) = (   0.3335254  -0.2266110   0.0068699), wk =   0.0057143
        k(   70) = (   0.3335254  -0.2266110   0.1073795), wk =   0.0057143
        k(   71) = (   0.3335254  -0.2266110   0.2078892), wk =   0.0057143
        k(   72) = (   0.3335254  -0.2266110   0.3083988), wk =   0.0057143
        k(   73) = (   0.3335254  -0.2266110  -0.2946591), wk =   0.0057143
        k(   74) = (   0.3335254  -0.2266110  -0.1941494), wk =   0.0057143
        k(   75) = (   0.3335254  -0.2266110  -0.0936398), wk =   0.0057143
        k(   76) = (   0.2668203  -0.1510740   0.0054959), wk =   0.0057143
        k(   77) = (   0.2668203  -0.1510740   0.1060056), wk =   0.0057143
        k(   78) = (   0.2668203  -0.1510740   0.2065152), wk =   0.0057143
        k(   79) = (   0.2668203  -0.1510740   0.3070249), wk =   0.0057143
        k(   80) = (   0.2668203  -0.1510740  -0.2960330), wk =   0.0057143
        k(   81) = (   0.2668203  -0.1510740  -0.1955234), wk =   0.0057143
        k(   82) = (   0.2668203  -0.1510740  -0.0950137), wk =   0.0057143
        k(   83) = (   0.2001153  -0.0755370   0.0041219), wk =   0.0057143
        k(   84) = (   0.2001153  -0.0755370   0.1046316), wk =   0.0057143
        k(   85) = (   0.2001153  -0.0755370   0.2051412), wk =   0.0057143
        k(   86) = (   0.2001153  -0.0755370   0.3056509), wk =   0.0057143
        k(   87) = (   0.2001153  -0.0755370  -0.2974070), wk =   0.0057143
        k(   88) = (   0.2001153  -0.0755370  -0.1968974), wk =   0.0057143
        k(   89) = (   0.2001153  -0.0755370  -0.0963877), wk =   0.0057143
        k(   90) = (   0.1334102   0.0000000   0.0027480), wk =   0.0028571
        k(   91) = (   0.1334102   0.0000000   0.1032576), wk =   0.0028571
        k(   92) = (   0.1334102   0.0000000   0.2037673), wk =   0.0028571
        k(   93) = (   0.1334102   0.0000000   0.3042769), wk =   0.0028571
        k(   94) = (   0.1334102   0.0000000  -0.2987810), wk =   0.0028571
        k(   95) = (   0.1334102   0.0000000  -0.1982713), wk =   0.0028571
        k(   96) = (   0.1334102   0.0000000  -0.0977617), wk =   0.0028571
        k(   97) = (   0.0000000   0.3021480   0.0000000), wk =   0.0028571
        k(   98) = (   0.0000000   0.3021480   0.1005096), wk =   0.0057143
        k(   99) = (   0.0000000   0.3021480   0.2010193), wk =   0.0057143
        k(  100) = (   0.0000000   0.3021480   0.3015289), wk =   0.0057143
        k(  101) = (  -0.0667051   0.3776850  -0.0013740), wk =   0.0057143
        k(  102) = (  -0.0667051   0.3776850   0.0991357), wk =   0.0057143
        k(  103) = (  -0.0667051   0.3776850   0.1996453), wk =   0.0057143
        k(  104) = (  -0.0667051   0.3776850   0.3001550), wk =   0.0057143
        k(  105) = (  -0.0667051   0.3776850  -0.3029029), wk =   0.0057143
        k(  106) = (  -0.0667051   0.3776850  -0.2023933), wk =   0.0057143
        k(  107) = (  -0.0667051   0.3776850  -0.1018836), wk =   0.0057143
        k(  108) = (  -0.1334102   0.4532220  -0.0027480), wk =   0.0057143
        k(  109) = (  -0.1334102   0.4532220   0.0977617), wk =   0.0057143
        k(  110) = (  -0.1334102   0.4532220   0.1982713), wk =   0.0057143
        k(  111) = (  -0.1334102   0.4532220   0.2987810), wk =   0.0057143
        k(  112) = (  -0.1334102   0.4532220  -0.3042769), wk =   0.0057143
        k(  113) = (  -0.1334102   0.4532220  -0.2037673), wk =   0.0057143
        k(  114) = (  -0.1334102   0.4532220  -0.1032576), wk =   0.0057143
        k(  115) = (   0.4669356  -0.2266110   0.0096178), wk =   0.0057143
        k(  116) = (   0.4669356  -0.2266110   0.1101275), wk =   0.0057143
        k(  117) = (   0.4669356  -0.2266110   0.2106371), wk =   0.0057143
        k(  118) = (   0.4669356  -0.2266110   0.3111468), wk =   0.0057143
        k(  119) = (   0.4669356  -0.2266110  -0.2919111), wk =   0.0057143
        k(  120) = (   0.4669356  -0.2266110  -0.1914014), wk =   0.0057143
        k(  121) = (   0.4669356  -0.2266110  -0.0908918), wk =   0.0057143
        k(  122) = (   0.4002305  -0.1510740   0.0082439), wk =   0.0057143
        k(  123) = (   0.4002305  -0.1510740   0.1087535), wk =   0.0057143
        k(  124) = (   0.4002305  -0.1510740   0.2092632), wk =   0.0057143
        k(  125) = (   0.4002305  -0.1510740   0.3097728), wk =   0.0057143
        k(  126) = (   0.4002305  -0.1510740  -0.2932851), wk =   0.0057143
        k(  127) = (   0.4002305  -0.1510740  -0.1927754), wk =   0.0057143
        k(  128) = (   0.4002305  -0.1510740  -0.0922658), wk =   0.0057143
        k(  129) = (   0.3335254  -0.0755370   0.0068699), wk =   0.0057143
        k(  130) = (   0.3335254  -0.0755370   0.1073795), wk =   0.0057143
        k(  131) = (   0.3335254  -0.0755370   0.2078892), wk =   0.0057143
        k(  132) = (   0.3335254  -0.0755370   0.3083988), wk =   0.0057143
        k(  133) = (   0.3335254  -0.0755370  -0.2946591), wk =   0.0057143
        k(  134) = (   0.3335254  -0.0755370  -0.1941494), wk =   0.0057143
        k(  135) = (   0.3335254  -0.0755370  -0.0936398), wk =   0.0057143
        k(  136) = (   0.2668203   0.0000000   0.0054959), wk =   0.0028571
        k(  137) = (   0.2668203   0.0000000   0.1060056), wk =   0.0028571
        k(  138) = (   0.2668203   0.0000000   0.2065152), wk =   0.0028571
        k(  139) = (   0.2668203   0.0000000   0.3070249), wk =   0.0028571
        k(  140) = (   0.2668203   0.0000000  -0.2960330), wk =   0.0028571
        k(  141) = (   0.2668203   0.0000000  -0.1955234), wk =   0.0028571
        k(  142) = (   0.2668203   0.0000000  -0.0950137), wk =   0.0028571
        k(  143) = (  -0.0000000   0.4532220  -0.0000000), wk =   0.0028571
        k(  144) = (  -0.0000000   0.4532220   0.1005096), wk =   0.0057143
        k(  145) = (  -0.0000000   0.4532220   0.2010193), wk =   0.0057143
        k(  146) = (  -0.0000000   0.4532220   0.3015289), wk =   0.0057143
        k(  147) = (  -0.0667051   0.5287590  -0.0013740), wk =   0.0057143
        k(  148) = (  -0.0667051   0.5287590   0.0991357), wk =   0.0057143
        k(  149) = (  -0.0667051   0.5287590   0.1996453), wk =   0.0057143
        k(  150) = (  -0.0667051   0.5287590   0.3001550), wk =   0.0057143
        k(  151) = (  -0.0667051   0.5287590  -0.3029029), wk =   0.0057143
        k(  152) = (  -0.0667051   0.5287590  -0.2023933), wk =   0.0057143
        k(  153) = (  -0.0667051   0.5287590  -0.1018836), wk =   0.0057143
        k(  154) = (   0.5336407  -0.1510740   0.0109918), wk =   0.0057143
        k(  155) = (   0.5336407  -0.1510740   0.1115015), wk =   0.0057143
        k(  156) = (   0.5336407  -0.1510740   0.2120111), wk =   0.0057143
        k(  157) = (   0.5336407  -0.1510740   0.3125208), wk =   0.0057143
        k(  158) = (   0.5336407  -0.1510740  -0.2905371), wk =   0.0057143
        k(  159) = (   0.5336407  -0.1510740  -0.1900275), wk =   0.0057143
        k(  160) = (   0.5336407  -0.1510740  -0.0895178), wk =   0.0057143
        k(  161) = (   0.4669356  -0.0755370   0.0096178), wk =   0.0057143
        k(  162) = (   0.4669356  -0.0755370   0.1101275), wk =   0.0057143
        k(  163) = (   0.4669356  -0.0755370   0.2106371), wk =   0.0057143
        k(  164) = (   0.4669356  -0.0755370   0.3111468), wk =   0.0057143
        k(  165) = (   0.4669356  -0.0755370  -0.2919111), wk =   0.0057143
        k(  166) = (   0.4669356  -0.0755370  -0.1914014), wk =   0.0057143
        k(  167) = (   0.4669356  -0.0755370  -0.0908918), wk =   0.0057143
        k(  168) = (   0.4002305  -0.0000000   0.0082439), wk =   0.0028571
        k(  169) = (   0.4002305  -0.0000000   0.1087535), wk =   0.0028571
        k(  170) = (   0.4002305  -0.0000000   0.2092632), wk =   0.0028571
        k(  171) = (   0.4002305  -0.0000000   0.3097728), wk =   0.0028571
        k(  172) = (   0.4002305  -0.0000000  -0.2932851), wk =   0.0028571
        k(  173) = (   0.4002305  -0.0000000  -0.1927754), wk =   0.0028571
        k(  174) = (   0.4002305  -0.0000000  -0.0922658), wk =   0.0028571
        k(  175) = (   0.0000000   0.6042960   0.0000000), wk =   0.0028571
        k(  176) = (   0.0000000   0.6042960   0.1005096), wk =   0.0057143
        k(  177) = (   0.0000000   0.6042960   0.2010193), wk =   0.0057143
        k(  178) = (   0.0000000   0.6042960   0.3015289), wk =   0.0057143
        k(  179) = (   0.6003458  -0.0755370   0.0123658), wk =   0.0057143
        k(  180) = (   0.6003458  -0.0755370   0.1128754), wk =   0.0057143
        k(  181) = (   0.6003458  -0.0755370   0.2133851), wk =   0.0057143
        k(  182) = (   0.6003458  -0.0755370   0.3138947), wk =   0.0057143
        k(  183) = (   0.6003458  -0.0755370  -0.2891631), wk =   0.0057143
        k(  184) = (   0.6003458  -0.0755370  -0.1886535), wk =   0.0057143
        k(  185) = (   0.6003458  -0.0755370  -0.0881438), wk =   0.0057143
        k(  186) = (   0.5336407   0.0000000   0.0109918), wk =   0.0028571
        k(  187) = (   0.5336407   0.0000000   0.1115015), wk =   0.0028571
        k(  188) = (   0.5336407   0.0000000   0.2120111), wk =   0.0028571
        k(  189) = (   0.5336407   0.0000000   0.3125208), wk =   0.0028571
        k(  190) = (   0.5336407   0.0000000  -0.2905371), wk =   0.0028571
        k(  191) = (   0.5336407   0.0000000  -0.1900275), wk =   0.0028571
        k(  192) = (   0.5336407   0.0000000  -0.0895178), wk =   0.0028571
        k(  193) = (   0.0000000  -0.7553700   0.0000000), wk =   0.0014286
        k(  194) = (   0.0000000  -0.7553700   0.1005096), wk =   0.0028571
        k(  195) = (   0.0000000  -0.7553700   0.2010193), wk =   0.0028571
        k(  196) = (   0.0000000  -0.7553700   0.3015289), wk =   0.0028571

                       cryst. coord.
        k(    1) = (   0.0000000   0.0000000   0.0000000), wk =   0.0014286
        k(    2) = (   0.0000000   0.0000000   0.1428571), wk =   0.0028571
        k(    3) = (   0.0000000   0.0000000   0.2857143), wk =   0.0028571
        k(    4) = (   0.0000000   0.0000000   0.4285714), wk =   0.0028571
        k(    5) = (  -0.0000000   0.1000000   0.0000000), wk =   0.0057143
        k(    6) = (  -0.0000000   0.1000000   0.1428571), wk =   0.0057143
        k(    7) = (  -0.0000000   0.1000000   0.2857143), wk =   0.0057143
        k(    8) = (  -0.0000000   0.1000000   0.4285714), wk =   0.0057143
        k(    9) = (  -0.0000000   0.1000000  -0.4285714), wk =   0.0057143
        k(   10) = (  -0.0000000   0.1000000  -0.2857143), wk =   0.0057143
        k(   11) = (  -0.0000000   0.1000000  -0.1428571), wk =   0.0057143
        k(   12) = (  -0.0000000   0.2000000   0.0000000), wk =   0.0057143
        k(   13) = (  -0.0000000   0.2000000   0.1428571), wk =   0.0057143
        k(   14) = (  -0.0000000   0.2000000   0.2857143), wk =   0.0057143
        k(   15) = (  -0.0000000   0.2000000   0.4285714), wk =   0.0057143
        k(   16) = (  -0.0000000   0.2000000  -0.4285714), wk =   0.0057143
        k(   17) = (  -0.0000000   0.2000000  -0.2857143), wk =   0.0057143
        k(   18) = (  -0.0000000   0.2000000  -0.1428571), wk =   0.0057143
        k(   19) = (  -0.0000000   0.3000000   0.0000000), wk =   0.0057143
        k(   20) = (  -0.0000000   0.3000000   0.1428571), wk =   0.0057143
        k(   21) = (  -0.0000000   0.3000000   0.2857143), wk =   0.0057143
        k(   22) = (  -0.0000000   0.3000000   0.4285714), wk =   0.0057143
        k(   23) = (  -0.0000000   0.3000000  -0.4285714), wk =   0.0057143
        k(   24) = (  -0.0000000   0.3000000  -0.2857143), wk =   0.0057143
        k(   25) = (  -0.0000000   0.3000000  -0.1428571), wk =   0.0057143
        k(   26) = (  -0.0000000   0.4000000   0.0000000), wk =   0.0057143
        k(   27) = (  -0.0000000   0.4000000   0.1428571), wk =   0.0057143
        k(   28) = (  -0.0000000   0.4000000   0.2857143), wk =   0.0057143
        k(   29) = (  -0.0000000   0.4000000   0.4285714), wk =   0.0057143
        k(   30) = (  -0.0000000   0.4000000  -0.4285714), wk =   0.0057143
        k(   31) = (  -0.0000000   0.4000000  -0.2857143), wk =   0.0057143
        k(   32) = (  -0.0000000   0.4000000  -0.1428571), wk =   0.0057143
        k(   33) = (   0.0000000  -0.5000000  -0.0000000), wk =   0.0028571
        k(   34) = (   0.0000000  -0.5000000   0.1428571), wk =   0.0057143
        k(   35) = (   0.0000000  -0.5000000   0.2857143), wk =   0.0057143
        k(   36) = (   0.0000000  -0.5000000   0.4285714), wk =   0.0057143
        k(   37) = (   0.1000000   0.1000000  -0.0000000), wk =   0.0028571
        k(   38) = (   0.1000000   0.1000000   0.1428571), wk =   0.0057143
        k(   39) = (   0.1000000   0.1000000   0.2857143), wk =   0.0057143
        k(   40) = (   0.1000000   0.1000000   0.4285714), wk =   0.0057143
        k(   41) = (   0.1000000   0.2000000  -0.0000000), wk =   0.0057143
        k(   42) = (   0.1000000   0.2000000   0.1428571), wk =   0.0057143
        k(   43) = (   0.1000000   0.2000000   0.2857143), wk =   0.0057143
        k(   44) = (   0.1000000   0.2000000   0.4285714), wk =   0.0057143
        k(   45) = (   0.1000000   0.2000000  -0.4285714), wk =   0.0057143
        k(   46) = (   0.1000000   0.2000000  -0.2857143), wk =   0.0057143
        k(   47) = (   0.1000000   0.2000000  -0.1428571), wk =   0.0057143
        k(   48) = (   0.1000000   0.3000000   0.0000000), wk =   0.0057143
        k(   49) = (   0.1000000   0.3000000   0.1428571), wk =   0.0057143
        k(   50) = (   0.1000000   0.3000000   0.2857143), wk =   0.0057143
        k(   51) = (   0.1000000   0.3000000   0.4285714), wk =   0.0057143
        k(   52) = (   0.1000000   0.3000000  -0.4285714), wk =   0.0057143
        k(   53) = (   0.1000000   0.3000000  -0.2857143), wk =   0.0057143
        k(   54) = (   0.1000000   0.3000000  -0.1428571), wk =   0.0057143
        k(   55) = (   0.1000000   0.4000000   0.0000000), wk =   0.0057143
        k(   56) = (   0.1000000   0.4000000   0.1428571), wk =   0.0057143
        k(   57) = (   0.1000000   0.4000000   0.2857143), wk =   0.0057143
        k(   58) = (   0.1000000   0.4000000   0.4285714), wk =   0.0057143
        k(   59) = (   0.1000000   0.4000000  -0.4285714), wk =   0.0057143
        k(   60) = (   0.1000000   0.4000000  -0.2857143), wk =   0.0057143
        k(   61) = (   0.1000000   0.4000000  -0.1428571), wk =   0.0057143
        k(   62) = (   0.1000000  -0.5000000  -0.0000000), wk =   0.0057143
        k(   63) = (   0.1000000  -0.5000000   0.1428571), wk =   0.0057143
        k(   64) = (   0.1000000  -0.5000000   0.2857143), wk =   0.0057143
        k(   65) = (   0.1000000  -0.5000000   0.4285714), wk =   0.0057143
        k(   66) = (   0.1000000  -0.5000000  -0.4285714), wk =   0.0057143
        k(   67) = (   0.1000000  -0.5000000  -0.2857143), wk =   0.0057143
        k(   68) = (   0.1000000  -0.5000000  -0.1428571), wk =   0.0057143
        k(   69) = (   0.1000000  -0.4000000  -0.0000000), wk =   0.0057143
        k(   70) = (   0.1000000  -0.4000000   0.1428571), wk =   0.0057143
        k(   71) = (   0.1000000  -0.4000000   0.2857143), wk =   0.0057143
        k(   72) = (   0.1000000  -0.4000000   0.4285714), wk =   0.0057143
        k(   73) = (   0.1000000  -0.4000000  -0.4285714), wk =   0.0057143
        k(   74) = (   0.1000000  -0.4000000  -0.2857143), wk =   0.0057143
        k(   75) = (   0.1000000  -0.4000000  -0.1428571), wk =   0.0057143
        k(   76) = (   0.1000000  -0.3000000  -0.0000000), wk =   0.0057143
        k(   77) = (   0.1000000  -0.3000000   0.1428571), wk =   0.0057143
        k(   78) = (   0.1000000  -0.3000000   0.2857143), wk =   0.0057143
        k(   79) = (   0.1000000  -0.3000000   0.4285714), wk =   0.0057143
        k(   80) = (   0.1000000  -0.3000000  -0.4285714), wk =   0.0057143
        k(   81) = (   0.1000000  -0.3000000  -0.2857143), wk =   0.0057143
        k(   82) = (   0.1000000  -0.3000000  -0.1428571), wk =   0.0057143
        k(   83) = (   0.1000000  -0.2000000  -0.0000000), wk =   0.0057143
        k(   84) = (   0.1000000  -0.2000000   0.1428571), wk =   0.0057143
        k(   85) = (   0.1000000  -0.2000000   0.2857143), wk =   0.0057143
        k(   86) = (   0.1000000  -0.2000000   0.4285714), wk =   0.0057143
        k(   87) = (   0.1000000  -0.2000000  -0.4285714), wk =   0.0057143
        k(   88) = (   0.1000000  -0.2000000  -0.2857143), wk =   0.0057143
        k(   89) = (   0.1000000  -0.2000000  -0.1428571), wk =   0.0057143
        k(   90) = (   0.1000000  -0.1000000  -0.0000000), wk =   0.0028571
        k(   91) = (   0.1000000  -0.1000000   0.1428571), wk =   0.0028571
        k(   92) = (   0.1000000  -0.1000000   0.2857143), wk =   0.0028571
        k(   93) = (   0.1000000  -0.1000000   0.4285714), wk =   0.0028571
        k(   94) = (   0.1000000  -0.1000000  -0.4285714), wk =   0.0028571
        k(   95) = (   0.1000000  -0.1000000  -0.2857143), wk =   0.0028571
        k(   96) = (   0.1000000  -0.1000000  -0.1428571), wk =   0.0028571
        k(   97) = (   0.2000000   0.2000000  -0.0000000), wk =   0.0028571
        k(   98) = (   0.2000000   0.2000000   0.1428571), wk =   0.0057143
        k(   99) = (   0.2000000   0.2000000   0.2857143), wk =   0.0057143
        k(  100) = (   0.2000000   0.2000000   0.4285714), wk =   0.0057143
        k(  101) = (   0.2000000   0.3000000   0.0000000), wk =   0.0057143
        k(  102) = (   0.2000000   0.3000000   0.1428571), wk =   0.0057143
        k(  103) = (   0.2000000   0.3000000   0.2857143), wk =   0.0057143
        k(  104) = (   0.2000000   0.3000000   0.4285714), wk =   0.0057143
        k(  105) = (   0.2000000   0.3000000  -0.4285714), wk =   0.0057143
        k(  106) = (   0.2000000   0.3000000  -0.2857143), wk =   0.0057143
        k(  107) = (   0.2000000   0.3000000  -0.1428571), wk =   0.0057143
        k(  108) = (   0.2000000   0.4000000  -0.0000000), wk =   0.0057143
        k(  109) = (   0.2000000   0.4000000   0.1428571), wk =   0.0057143
        k(  110) = (   0.2000000   0.4000000   0.2857143), wk =   0.0057143
        k(  111) = (   0.2000000   0.4000000   0.4285714), wk =   0.0057143
        k(  112) = (   0.2000000   0.4000000  -0.4285714), wk =   0.0057143
        k(  113) = (   0.2000000   0.4000000  -0.2857143), wk =   0.0057143
        k(  114) = (   0.2000000   0.4000000  -0.1428571), wk =   0.0057143
        k(  115) = (   0.2000000  -0.5000000  -0.0000000), wk =   0.0057143
        k(  116) = (   0.2000000  -0.5000000   0.1428571), wk =   0.0057143
        k(  117) = (   0.2000000  -0.5000000   0.2857143), wk =   0.0057143
        k(  118) = (   0.2000000  -0.5000000   0.4285714), wk =   0.0057143
        k(  119) = (   0.2000000  -0.5000000  -0.4285714), wk =   0.0057143
        k(  120) = (   0.2000000  -0.5000000  -0.2857143), wk =   0.0057143
        k(  121) = (   0.2000000  -0.5000000  -0.1428571), wk =   0.0057143
        k(  122) = (   0.2000000  -0.4000000  -0.0000000), wk =   0.0057143
        k(  123) = (   0.2000000  -0.4000000   0.1428571), wk =   0.0057143
        k(  124) = (   0.2000000  -0.4000000   0.2857143), wk =   0.0057143
        k(  125) = (   0.2000000  -0.4000000   0.4285714), wk =   0.0057143
        k(  126) = (   0.2000000  -0.4000000  -0.4285714), wk =   0.0057143
        k(  127) = (   0.2000000  -0.4000000  -0.2857143), wk =   0.0057143
        k(  128) = (   0.2000000  -0.4000000  -0.1428571), wk =   0.0057143
        k(  129) = (   0.2000000  -0.3000000  -0.0000000), wk =   0.0057143
        k(  130) = (   0.2000000  -0.3000000   0.1428571), wk =   0.0057143
        k(  131) = (   0.2000000  -0.3000000   0.2857143), wk =   0.0057143
        k(  132) = (   0.2000000  -0.3000000   0.4285714), wk =   0.0057143
        k(  133) = (   0.2000000  -0.3000000  -0.4285714), wk =   0.0057143
        k(  134) = (   0.2000000  -0.3000000  -0.2857143), wk =   0.0057143
        k(  135) = (   0.2000000  -0.3000000  -0.1428571), wk =   0.0057143
        k(  136) = (   0.2000000  -0.2000000  -0.0000000), wk =   0.0028571
        k(  137) = (   0.2000000  -0.2000000   0.1428571), wk =   0.0028571
        k(  138) = (   0.2000000  -0.2000000   0.2857143), wk =   0.0028571
        k(  139) = (   0.2000000  -0.2000000   0.4285714), wk =   0.0028571
        k(  140) = (   0.2000000  -0.2000000  -0.4285714), wk =   0.0028571
        k(  141) = (   0.2000000  -0.2000000  -0.2857143), wk =   0.0028571
        k(  142) = (   0.2000000  -0.2000000  -0.1428571), wk =   0.0028571
        k(  143) = (   0.3000000   0.3000000   0.0000000), wk =   0.0028571
        k(  144) = (   0.3000000   0.3000000   0.1428571), wk =   0.0057143
        k(  145) = (   0.3000000   0.3000000   0.2857143), wk =   0.0057143
        k(  146) = (   0.3000000   0.3000000   0.4285714), wk =   0.0057143
        k(  147) = (   0.3000000   0.4000000   0.0000000), wk =   0.0057143
        k(  148) = (   0.3000000   0.4000000   0.1428571), wk =   0.0057143
        k(  149) = (   0.3000000   0.4000000   0.2857143), wk =   0.0057143
        k(  150) = (   0.3000000   0.4000000   0.4285714), wk =   0.0057143
        k(  151) = (   0.3000000   0.4000000  -0.4285714), wk =   0.0057143
        k(  152) = (   0.3000000   0.4000000  -0.2857143), wk =   0.0057143
        k(  153) = (   0.3000000   0.4000000  -0.1428571), wk =   0.0057143
        k(  154) = (   0.3000000  -0.5000000   0.0000000), wk =   0.0057143
        k(  155) = (   0.3000000  -0.5000000   0.1428571), wk =   0.0057143
        k(  156) = (   0.3000000  -0.5000000   0.2857143), wk =   0.0057143
        k(  157) = (   0.3000000  -0.5000000   0.4285714), wk =   0.0057143
        k(  158) = (   0.3000000  -0.5000000  -0.4285714), wk =   0.0057143
        k(  159) = (   0.3000000  -0.5000000  -0.2857143), wk =   0.0057143
        k(  160) = (   0.3000000  -0.5000000  -0.1428571), wk =   0.0057143
        k(  161) = (   0.3000000  -0.4000000  -0.0000000), wk =   0.0057143
        k(  162) = (   0.3000000  -0.4000000   0.1428571), wk =   0.0057143
        k(  163) = (   0.3000000  -0.4000000   0.2857143), wk =   0.0057143
        k(  164) = (   0.3000000  -0.4000000   0.4285714), wk =   0.0057143
        k(  165) = (   0.3000000  -0.4000000  -0.4285714), wk =   0.0057143
        k(  166) = (   0.3000000  -0.4000000  -0.2857143), wk =   0.0057143
        k(  167) = (   0.3000000  -0.4000000  -0.1428571), wk =   0.0057143
        k(  168) = (   0.3000000  -0.3000000  -0.0000000), wk =   0.0028571
        k(  169) = (   0.3000000  -0.3000000   0.1428571), wk =   0.0028571
        k(  170) = (   0.3000000  -0.3000000   0.2857143), wk =   0.0028571
        k(  171) = (   0.3000000  -0.3000000   0.4285714), wk =   0.0028571
        k(  172) = (   0.3000000  -0.3000000  -0.4285714), wk =   0.0028571
        k(  173) = (   0.3000000  -0.3000000  -0.2857143), wk =   0.0028571
        k(  174) = (   0.3000000  -0.3000000  -0.1428571), wk =   0.0028571
        k(  175) = (   0.4000000   0.4000000  -0.0000000), wk =   0.0028571
        k(  176) = (   0.4000000   0.4000000   0.1428571), wk =   0.0057143
        k(  177) = (   0.4000000   0.4000000   0.2857143), wk =   0.0057143
        k(  178) = (   0.4000000   0.4000000   0.4285714), wk =   0.0057143
        k(  179) = (   0.4000000  -0.5000000  -0.0000000), wk =   0.0057143
        k(  180) = (   0.4000000  -0.5000000   0.1428571), wk =   0.0057143
        k(  181) = (   0.4000000  -0.5000000   0.2857143), wk =   0.0057143
        k(  182) = (   0.4000000  -0.5000000   0.4285714), wk =   0.0057143
        k(  183) = (   0.4000000  -0.5000000  -0.4285714), wk =   0.0057143
        k(  184) = (   0.4000000  -0.5000000  -0.2857143), wk =   0.0057143
        k(  185) = (   0.4000000  -0.5000000  -0.1428571), wk =   0.0057143
        k(  186) = (   0.4000000  -0.4000000  -0.0000000), wk =   0.0028571
        k(  187) = (   0.4000000  -0.4000000   0.1428571), wk =   0.0028571
        k(  188) = (   0.4000000  -0.4000000   0.2857143), wk =   0.0028571
        k(  189) = (   0.4000000  -0.4000000   0.4285714), wk =   0.0028571
        k(  190) = (   0.4000000  -0.4000000  -0.4285714), wk =   0.0028571
        k(  191) = (   0.4000000  -0.4000000  -0.2857143), wk =   0.0028571
        k(  192) = (   0.4000000  -0.4000000  -0.1428571), wk =   0.0028571
        k(  193) = (  -0.5000000  -0.5000000   0.0000000), wk =   0.0014286
        k(  194) = (  -0.5000000  -0.5000000   0.1428571), wk =   0.0028571
        k(  195) = (  -0.5000000  -0.5000000   0.2857143), wk =   0.0028571
        k(  196) = (  -0.5000000  -0.5000000   0.4285714), wk =   0.0028571

     Dense  grid:   153009 G-vectors     FFT dimensions: (  60,  60,  90)

     Smooth grid:    54091 G-vectors     FFT dimensions: (  45,  45,  60)

     Dynamical RAM for                 wfc:       3.61 MB

     Dynamical RAM for     wfc (w. buffer):    1419.03 MB

     Dynamical RAM for           str. fact:       7.00 MB

     Dynamical RAM for           local pot:       0.00 MB

     Dynamical RAM for          nlocal pot:       9.28 MB

     Dynamical RAM for                qrad:       3.77 MB

     Dynamical RAM for          rho,v,vnew:      28.84 MB

     Dynamical RAM for               rhoin:       9.61 MB

     Dynamical RAM for            rho*nmix:      74.71 MB

     Dynamical RAM for           G-vectors:       9.17 MB

     Dynamical RAM for          h,s,v(r/c):       0.22 MB

     Dynamical RAM for          <psi|beta>:       0.05 MB

     Dynamical RAM for                 psi:       7.22 MB

     Dynamical RAM for                hpsi:       7.22 MB

     Dynamical RAM for                spsi:       7.22 MB

     Dynamical RAM for      wfcinit/wfcrot:       7.87 MB

     Dynamical RAM for           addusdens:     261.49 MB

     Dynamical RAM for          addusforce:     280.19 MB

     Dynamical RAM for         addusstress:     286.00 MB

     Estimated static dynamical RAM per process >       1.48 GB

     Estimated max dynamical RAM per process >       1.83 GB
     Generating pointlists ...
     new r_m :   0.2373 (alat units)  2.0136 (a.u.) for type    1
     new r_m :   0.2417 (alat units)  2.0509 (a.u.) for type    2
     new r_m :   0.2373 (alat units)  2.0136 (a.u.) for type    3

     Initial potential from superposition of free atoms

     starting charge      57.5170, renormalised to      58.0000
     Starting wfcs are   38 randomized atomic wfcs

     total cpu time spent up to now is       10.4 secs

     Self-consistent Calculation
[tb_dev] Currently allocated     3.67E+00 Mbytes, locked:    0 /  12
[tb_pin] Currently allocated     0.00E+00 Mbytes, locked:    0 /   0

     iteration #  1     ecut=    60.00 Ry     beta= 0.40
     Davidson diagonalization with overlap

---- Real-time Memory Report at c_bands before calling an iterative solver
          2355 MiB given to the printing process from OS
         -1944 MiB allocation reported by mallinfo(arena+hblkhd)
         57705 MiB available memory on the node where the printing process lives
     GPU memory used/free/total (MiB): 1246 / 15034 / 16280
------------------
     ethr =  1.00E-02,  avg # of iterations =  3.0

     total cpu time spent up to now is       22.1 secs

     total energy              =    -529.41346198 Ry
     estimated scf accuracy    <       2.41748468 Ry

     total magnetization       =    -0.00 Bohr mag/cell
     absolute magnetization    =     0.57 Bohr mag/cell
[tb_dev] Currently allocated     3.67E+00 Mbytes, locked:    0 /  10
[tb_pin] Currently allocated     0.00E+00 Mbytes, locked:    0 /   0

     iteration #  2     ecut=    60.00 Ry     beta= 0.40
     Davidson diagonalization with overlap

---- Real-time Memory Report at c_bands before calling an iterative solver
          2403 MiB given to the printing process from OS
         -1833 MiB allocation reported by mallinfo(arena+hblkhd)
         57658 MiB available memory on the node where the printing process lives
     GPU memory used/free/total (MiB): 1456 / 14824 / 16280
------------------
     ethr =  4.17E-03,  avg # of iterations =  4.0

     total cpu time spent up to now is       36.6 secs

     total energy              =    -529.96436735 Ry
     estimated scf accuracy    <       1.86732913 Ry

     total magnetization       =     0.06 Bohr mag/cell
     absolute magnetization    =     0.39 Bohr mag/cell
[tb_dev] Currently allocated     3.67E+00 Mbytes, locked:    0 /  10
[tb_pin] Currently allocated     0.00E+00 Mbytes, locked:    0 /   0

     iteration #  3     ecut=    60.00 Ry     beta= 0.40
     Davidson diagonalization with overlap

---- Real-time Memory Report at c_bands before calling an iterative solver
          2408 MiB given to the printing process from OS
         -1833 MiB allocation reported by mallinfo(arena+hblkhd)
         57657 MiB available memory on the node where the printing process lives
     GPU memory used/free/total (MiB): 1564 / 14716 / 16280
------------------
     ethr =  3.22E-03,  avg # of iterations =  2.5
     Minimization algorithm failed to find Fermi energy: reverting to bisection
     Possible cause: smearing is larger than the electronic band-gap.

     total cpu time spent up to now is       48.1 secs

     total energy              =    -530.20509086 Ry
     estimated scf accuracy    <       0.10298356 Ry

     total magnetization       =     0.01 Bohr mag/cell
     absolute magnetization    =     0.37 Bohr mag/cell
[tb_dev] Currently allocated     3.67E+00 Mbytes, locked:    0 /  10
[tb_pin] Currently allocated     0.00E+00 Mbytes, locked:    0 /   0

     iteration #  4     ecut=    60.00 Ry     beta= 0.40
     Davidson diagonalization with overlap

---- Real-time Memory Report at c_bands before calling an iterative solver
          2419 MiB given to the printing process from OS
         -1833 MiB allocation reported by mallinfo(arena+hblkhd)
         57647 MiB available memory on the node where the printing process lives
     GPU memory used/free/total (MiB): 1574 / 14706 / 16280
------------------
     ethr =  1.78E-04,  avg # of iterations =  6.5

     total cpu time spent up to now is       68.2 secs

     WARNING: integrated charge=    58.00370044, expected=    58.00000000

     total energy              =    -530.22020553 Ry
     estimated scf accuracy    <       0.05585236 Ry

     total magnetization       =     0.00 Bohr mag/cell
     absolute magnetization    =     0.21 Bohr mag/cell
[tb_dev] Currently allocated     3.67E+00 Mbytes, locked:    0 /  10
[tb_pin] Currently allocated     0.00E+00 Mbytes, locked:    0 /   0

     iteration #  5     ecut=    60.00 Ry     beta= 0.40
     Davidson diagonalization with overlap

---- Real-time Memory Report at c_bands before calling an iterative solver
          2422 MiB given to the printing process from OS
         -1838 MiB allocation reported by mallinfo(arena+hblkhd)
         57645 MiB available memory on the node where the printing process lives
     GPU memory used/free/total (MiB): 1574 / 14706 / 16280
------------------
     ethr =  9.63E-05,  avg # of iterations =  2.7
     Minimization algorithm failed to find Fermi energy: reverting to bisection
     Possible cause: smearing is larger than the electronic band-gap.

     total cpu time spent up to now is       80.2 secs

     WARNING: integrated charge=    58.00175606, expected=    58.00000000

     total energy              =    -530.23083738 Ry
     estimated scf accuracy    <       0.00189412 Ry

     total magnetization       =     0.07 Bohr mag/cell
     absolute magnetization    =     0.18 Bohr mag/cell
[tb_dev] Currently allocated     3.67E+00 Mbytes, locked:    0 /  10
[tb_pin] Currently allocated     0.00E+00 Mbytes, locked:    0 /   0

     iteration #  6     ecut=    60.00 Ry     beta= 0.40
     Davidson diagonalization with overlap

---- Real-time Memory Report at c_bands before calling an iterative solver
          2422 MiB given to the printing process from OS
         -1833 MiB allocation reported by mallinfo(arena+hblkhd)
         57645 MiB available memory on the node where the printing process lives
     GPU memory used/free/total (MiB): 1574 / 14706 / 16280
------------------
     c_bands:  1 eigenvalues not converged
     c_bands:  1 eigenvalues not converged
     c_bands:  1 eigenvalues not converged
     ethr =  3.27E-06,  avg # of iterations =  7.7
     Minimization algorithm failed to find Fermi energy: reverting to bisection
     Possible cause: smearing is larger than the electronic band-gap.

     total cpu time spent up to now is      102.4 secs

     WARNING: integrated charge=    58.00081245, expected=    58.00000000

     total energy              =    -530.23117986 Ry
     estimated scf accuracy    <       0.00043949 Ry

     total magnetization       =     0.07 Bohr mag/cell
     absolute magnetization    =     0.14 Bohr mag/cell
[tb_dev] Currently allocated     3.67E+00 Mbytes, locked:    0 /  10
[tb_pin] Currently allocated     0.00E+00 Mbytes, locked:    0 /   0

     iteration #  7     ecut=    60.00 Ry     beta= 0.40
     Davidson diagonalization with overlap

---- Real-time Memory Report at c_bands before calling an iterative solver
          2429 MiB given to the printing process from OS
         -1828 MiB allocation reported by mallinfo(arena+hblkhd)
         57640 MiB available memory on the node where the printing process lives
     GPU memory used/free/total (MiB): 1574 / 14706 / 16280
------------------
     ethr =  7.58E-07,  avg # of iterations =  3.6
     Minimization algorithm failed to find Fermi energy: reverting to bisection
     Possible cause: smearing is larger than the electronic band-gap.

     total cpu time spent up to now is      115.9 secs

     WARNING: integrated charge=    58.00001925, expected=    58.00000000

     total energy              =    -530.23127084 Ry
     estimated scf accuracy    <       0.00015086 Ry

     total magnetization       =     0.06 Bohr mag/cell
     absolute magnetization    =     0.12 Bohr mag/cell
[tb_dev] Currently allocated     3.67E+00 Mbytes, locked:    0 /  10
[tb_pin] Currently allocated     0.00E+00 Mbytes, locked:    0 /   0

     iteration #  8     ecut=    60.00 Ry     beta= 0.40
     Davidson diagonalization with overlap

---- Real-time Memory Report at c_bands before calling an iterative solver
          2434 MiB given to the printing process from OS
         -1826 MiB allocation reported by mallinfo(arena+hblkhd)
         57636 MiB available memory on the node where the printing process lives
     GPU memory used/free/total (MiB): 1574 / 14706 / 16280
------------------
     ethr =  2.60E-07,  avg # of iterations =  1.6
     Minimization algorithm failed to find Fermi energy: reverting to bisection
     Possible cause: smearing is larger than the electronic band-gap.

     total cpu time spent up to now is      126.2 secs

     WARNING: integrated charge=    57.99991778, expected=    58.00000000

     total energy              =    -530.23127370 Ry
     estimated scf accuracy    <       0.00002829 Ry

     total magnetization       =     0.06 Bohr mag/cell
     absolute magnetization    =     0.11 Bohr mag/cell
[tb_dev] Currently allocated     3.67E+00 Mbytes, locked:    0 /  10
[tb_pin] Currently allocated     0.00E+00 Mbytes, locked:    0 /   0

     iteration #  9     ecut=    60.00 Ry     beta= 0.40
     Davidson diagonalization with overlap

---- Real-time Memory Report at c_bands before calling an iterative solver
          2440 MiB given to the printing process from OS
         -1821 MiB allocation reported by mallinfo(arena+hblkhd)
         57631 MiB available memory on the node where the printing process lives
     GPU memory used/free/total (MiB): 1574 / 14706 / 16280
------------------
     ethr =  4.88E-08,  avg # of iterations =  3.4
     Minimization algorithm failed to find Fermi energy: reverting to bisection
     Possible cause: smearing is larger than the electronic band-gap.

     total cpu time spent up to now is      139.6 secs

     WARNING: integrated charge=    57.99996332, expected=    58.00000000

     total energy              =    -530.23128493 Ry
     estimated scf accuracy    <       0.00000648 Ry

     total magnetization       =     0.06 Bohr mag/cell
     absolute magnetization    =     0.10 Bohr mag/cell
[tb_dev] Currently allocated     3.67E+00 Mbytes, locked:    0 /  10
[tb_pin] Currently allocated     0.00E+00 Mbytes, locked:    0 /   0

     iteration # 10     ecut=    60.00 Ry     beta= 0.40
     Davidson diagonalization with overlap

---- Real-time Memory Report at c_bands before calling an iterative solver
          2440 MiB given to the printing process from OS
         -1818 MiB allocation reported by mallinfo(arena+hblkhd)
         57631 MiB available memory on the node where the printing process lives
     GPU memory used/free/total (MiB): 1574 / 14706 / 16280
------------------
     ethr =  1.12E-08,  avg # of iterations =  1.3
     Minimization algorithm failed to find Fermi energy: reverting to bisection
     Possible cause: smearing is larger than the electronic band-gap.

     total cpu time spent up to now is      149.3 secs

     WARNING: integrated charge=    57.99997914, expected=    58.00000000

     total energy              =    -530.23128541 Ry
     estimated scf accuracy    <       0.00000416 Ry

     total magnetization       =     0.06 Bohr mag/cell
     absolute magnetization    =     0.10 Bohr mag/cell
[tb_dev] Currently allocated     3.67E+00 Mbytes, locked:    0 /  10
[tb_pin] Currently allocated     0.00E+00 Mbytes, locked:    0 /   0

     iteration # 11     ecut=    60.00 Ry     beta= 0.40
     Davidson diagonalization with overlap

---- Real-time Memory Report at c_bands before calling an iterative solver
          2441 MiB given to the printing process from OS
         -1818 MiB allocation reported by mallinfo(arena+hblkhd)
         57630 MiB available memory on the node where the printing process lives
     GPU memory used/free/total (MiB): 1574 / 14706 / 16280
------------------
     ethr =  7.17E-09,  avg # of iterations =  2.4
     Minimization algorithm failed to find Fermi energy: reverting to bisection
     Possible cause: smearing is larger than the electronic band-gap.

     total cpu time spent up to now is      160.9 secs

     WARNING: integrated charge=    57.99998142, expected=    58.00000000

     total energy              =    -530.23128782 Ry
     estimated scf accuracy    <       0.00000053 Ry

     total magnetization       =     0.05 Bohr mag/cell
     absolute magnetization    =     0.09 Bohr mag/cell
[tb_dev] Currently allocated     3.67E+00 Mbytes, locked:    0 /  10
[tb_pin] Currently allocated     0.00E+00 Mbytes, locked:    0 /   0

     iteration # 12     ecut=    60.00 Ry     beta= 0.40
     Davidson diagonalization with overlap

---- Real-time Memory Report at c_bands before calling an iterative solver
          2441 MiB given to the printing process from OS
         -1818 MiB allocation reported by mallinfo(arena+hblkhd)
         57631 MiB available memory on the node where the printing process lives
     GPU memory used/free/total (MiB): 1574 / 14706 / 16280
------------------
     ethr =  9.10E-10,  avg # of iterations =  4.8
     Minimization algorithm failed to find Fermi energy: reverting to bisection
     Possible cause: smearing is larger than the electronic band-gap.

     total cpu time spent up to now is      177.2 secs

     WARNING: integrated charge=    57.99999351, expected=    58.00000000

     total energy              =    -530.23128993 Ry
     estimated scf accuracy    <       0.00000046 Ry

     total magnetization       =     0.05 Bohr mag/cell
     absolute magnetization    =     0.08 Bohr mag/cell
[tb_dev] Currently allocated     3.67E+00 Mbytes, locked:    0 /  10
[tb_pin] Currently allocated     0.00E+00 Mbytes, locked:    0 /   0

     iteration # 13     ecut=    60.00 Ry     beta= 0.40
     Davidson diagonalization with overlap

---- Real-time Memory Report at c_bands before calling an iterative solver
          2441 MiB given to the printing process from OS
         -1818 MiB allocation reported by mallinfo(arena+hblkhd)
         57631 MiB available memory on the node where the printing process lives
     GPU memory used/free/total (MiB): 1574 / 14706 / 16280
------------------
     ethr =  7.93E-10,  avg # of iterations =  4.4
     Minimization algorithm failed to find Fermi energy: reverting to bisection
     Possible cause: smearing is larger than the electronic band-gap.

     total cpu time spent up to now is      192.7 secs

     total energy              =    -530.23128315 Ry
     estimated scf accuracy    <       0.00000020 Ry

     total magnetization       =     0.04 Bohr mag/cell
     absolute magnetization    =     0.06 Bohr mag/cell
[tb_dev] Currently allocated     3.67E+00 Mbytes, locked:    0 /  10
[tb_pin] Currently allocated     0.00E+00 Mbytes, locked:    0 /   0

     iteration # 14     ecut=    60.00 Ry     beta= 0.40
     Davidson diagonalization with overlap

---- Real-time Memory Report at c_bands before calling an iterative solver
          2441 MiB given to the printing process from OS
         -1818 MiB allocation reported by mallinfo(arena+hblkhd)
         57631 MiB available memory on the node where the printing process lives
     GPU memory used/free/total (MiB): 1574 / 14706 / 16280
------------------
     ethr =  3.44E-10,  avg # of iterations =  5.3

     total cpu time spent up to now is      210.8 secs

     WARNING: integrated charge=    57.99980957, expected=    58.00000000

     total energy              =    -530.22922439 Ry
     estimated scf accuracy    <       0.00003785 Ry

     total magnetization       =    -0.00 Bohr mag/cell
     absolute magnetization    =     0.02 Bohr mag/cell
[tb_dev] Currently allocated     3.67E+00 Mbytes, locked:    0 /  10
[tb_pin] Currently allocated     0.00E+00 Mbytes, locked:    0 /   0

     iteration # 15     ecut=    60.00 Ry     beta= 0.40
     Davidson diagonalization with overlap

---- Real-time Memory Report at c_bands before calling an iterative solver
          2441 MiB given to the printing process from OS
         -1818 MiB allocation reported by mallinfo(arena+hblkhd)
         57631 MiB available memory on the node where the printing process lives
     GPU memory used/free/total (MiB): 1602 / 14678 / 16280
------------------
     ethr =  3.44E-10,  avg # of iterations =  1.5

     total cpu time spent up to now is      221.1 secs

     WARNING: integrated charge=    57.99934220, expected=    58.00000000

     total energy              =    -530.22919708 Ry
     estimated scf accuracy    <       0.00003957 Ry

     total magnetization       =    -0.00 Bohr mag/cell
     absolute magnetization    =     0.02 Bohr mag/cell
[tb_dev] Currently allocated     3.67E+00 Mbytes, locked:    0 /  10
[tb_pin] Currently allocated     0.00E+00 Mbytes, locked:    0 /   0

     iteration # 16     ecut=    60.00 Ry     beta= 0.40
     Davidson diagonalization with overlap

---- Real-time Memory Report at c_bands before calling an iterative solver
          2441 MiB given to the printing process from OS
         -1818 MiB allocation reported by mallinfo(arena+hblkhd)
         57632 MiB available memory on the node where the printing process lives
     GPU memory used/free/total (MiB): 1602 / 14678 / 16280
------------------
     ethr =  3.44E-10,  avg # of iterations =  5.7
     Minimization algorithm failed to find Fermi energy: reverting to bisection
     Possible cause: smearing is larger than the electronic band-gap.

     total cpu time spent up to now is      239.9 secs

     WARNING: integrated charge=    57.99869813, expected=    58.00000000

     total energy              =    -530.23129096 Ry
     estimated scf accuracy    <       0.00000056 Ry

     total magnetization       =     0.04 Bohr mag/cell
     absolute magnetization    =     0.07 Bohr mag/cell
[tb_dev] Currently allocated     3.67E+00 Mbytes, locked:    0 /  10
[tb_pin] Currently allocated     0.00E+00 Mbytes, locked:    0 /   0

     iteration # 17     ecut=    60.00 Ry     beta= 0.40
     Davidson diagonalization with overlap

---- Real-time Memory Report at c_bands before calling an iterative solver
          2441 MiB given to the printing process from OS
         -1818 MiB allocation reported by mallinfo(arena+hblkhd)
         57619 MiB available memory on the node where the printing process lives
     GPU memory used/free/total (MiB): 1602 / 14678 / 16280
------------------
     ethr =  3.44E-10,  avg # of iterations =  1.6
     Minimization algorithm failed to find Fermi energy: reverting to bisection
     Possible cause: smearing is larger than the electronic band-gap.

     total cpu time spent up to now is      250.3 secs

     WARNING: integrated charge=    57.99711741, expected=    58.00000000

     total energy              =    -530.23129091 Ry
     estimated scf accuracy    <       0.00000113 Ry

     total magnetization       =     0.04 Bohr mag/cell
     absolute magnetization    =     0.07 Bohr mag/cell
[tb_dev] Currently allocated     3.67E+00 Mbytes, locked:    0 /  10
[tb_pin] Currently allocated     0.00E+00 Mbytes, locked:    0 /   0

     iteration # 18     ecut=    60.00 Ry     beta= 0.40
     Davidson diagonalization with overlap

---- Real-time Memory Report at c_bands before calling an iterative solver
          2441 MiB given to the printing process from OS
         -1818 MiB allocation reported by mallinfo(arena+hblkhd)
         57623 MiB available memory on the node where the printing process lives
     GPU memory used/free/total (MiB): 1602 / 14678 / 16280
------------------
     ethr =  3.44E-10,  avg # of iterations =  3.1
     Minimization algorithm failed to find Fermi energy: reverting to bisection
     Possible cause: smearing is larger than the electronic band-gap.

     total cpu time spent up to now is      263.4 secs

     WARNING: integrated charge=    57.99712698, expected=    58.00000000

     total energy              =    -530.23129097 Ry
     estimated scf accuracy    <       0.00000393 Ry

     total magnetization       =     0.04 Bohr mag/cell
     absolute magnetization    =     0.07 Bohr mag/cell
[tb_dev] Currently allocated     3.67E+00 Mbytes, locked:    0 /  10
[tb_pin] Currently allocated     0.00E+00 Mbytes, locked:    0 /   0

     iteration # 19     ecut=    60.00 Ry     beta= 0.40
     Davidson diagonalization with overlap

---- Real-time Memory Report at c_bands before calling an iterative solver
          2441 MiB given to the printing process from OS
         -1818 MiB allocation reported by mallinfo(arena+hblkhd)
         57624 MiB available memory on the node where the printing process lives
     GPU memory used/free/total (MiB): 1602 / 14678 / 16280
------------------
     ethr =  3.44E-10,  avg # of iterations =  1.0
     Minimization algorithm failed to find Fermi energy: reverting to bisection
     Possible cause: smearing is larger than the electronic band-gap.

     total cpu time spent up to now is      272.8 secs

     WARNING: integrated charge=    57.99704409, expected=    58.00000000

     total energy              =    -530.23129102 Ry
     estimated scf accuracy    <       0.00000395 Ry

     total magnetization       =     0.04 Bohr mag/cell
     absolute magnetization    =     0.07 Bohr mag/cell
[tb_dev] Currently allocated     3.67E+00 Mbytes, locked:    0 /  10
[tb_pin] Currently allocated     0.00E+00 Mbytes, locked:    0 /   0

     iteration # 20     ecut=    60.00 Ry     beta= 0.40
     Davidson diagonalization with overlap

---- Real-time Memory Report at c_bands before calling an iterative solver
          2441 MiB given to the printing process from OS
         -1818 MiB allocation reported by mallinfo(arena+hblkhd)
         57624 MiB available memory on the node where the printing process lives
     GPU memory used/free/total (MiB): 1602 / 14678 / 16280
------------------
     ethr =  3.44E-10,  avg # of iterations =  1.0
     Minimization algorithm failed to find Fermi energy: reverting to bisection
     Possible cause: smearing is larger than the electronic band-gap.

     total cpu time spent up to now is      282.2 secs

     WARNING: integrated charge=    57.99706364, expected=    58.00000000

     total energy              =    -530.23129112 Ry
     estimated scf accuracy    <       0.00000420 Ry

     total magnetization       =     0.04 Bohr mag/cell
     absolute magnetization    =     0.07 Bohr mag/cell
[tb_dev] Currently allocated     3.67E+00 Mbytes, locked:    0 /  10
[tb_pin] Currently allocated     0.00E+00 Mbytes, locked:    0 /   0

     iteration # 21     ecut=    60.00 Ry     beta= 0.40
     Davidson diagonalization with overlap

---- Real-time Memory Report at c_bands before calling an iterative solver
          2441 MiB given to the printing process from OS
         -1818 MiB allocation reported by mallinfo(arena+hblkhd)
         57625 MiB available memory on the node where the printing process lives
     GPU memory used/free/total (MiB): 1602 / 14678 / 16280
------------------
     ethr =  3.44E-10,  avg # of iterations =  1.0
     Minimization algorithm failed to find Fermi energy: reverting to bisection
     Possible cause: smearing is larger than the electronic band-gap.

     total cpu time spent up to now is      291.7 secs

     WARNING: integrated charge=    57.99596830, expected=    58.00000000

     total energy              =    -530.23128848 Ry
     estimated scf accuracy    <       0.00000428 Ry

     total magnetization       =     0.04 Bohr mag/cell
     absolute magnetization    =     0.07 Bohr mag/cell
[tb_dev] Currently allocated     3.67E+00 Mbytes, locked:    0 /  10
[tb_pin] Currently allocated     0.00E+00 Mbytes, locked:    0 /   0

     iteration # 22     ecut=    60.00 Ry     beta= 0.40
     Davidson diagonalization with overlap

---- Real-time Memory Report at c_bands before calling an iterative solver
          2441 MiB given to the printing process from OS
         -1818 MiB allocation reported by mallinfo(arena+hblkhd)
         57626 MiB available memory on the node where the printing process lives
     GPU memory used/free/total (MiB): 1602 / 14678 / 16280
------------------
     ethr =  3.44E-10,  avg # of iterations =  4.8
     Minimization algorithm failed to find Fermi energy: reverting to bisection
     Possible cause: smearing is larger than the electronic band-gap.

     total cpu time spent up to now is      308.0 secs

     WARNING: integrated charge=    57.99610100, expected=    58.00000000

     total energy              =    -530.23129044 Ry
     estimated scf accuracy    <       0.00000728 Ry

     total magnetization       =     0.05 Bohr mag/cell
     absolute magnetization    =     0.08 Bohr mag/cell
[tb_dev] Currently allocated     3.67E+00 Mbytes, locked:    0 /  10
[tb_pin] Currently allocated     0.00E+00 Mbytes, locked:    0 /   0

     iteration # 23     ecut=    60.00 Ry     beta= 0.40
     Davidson diagonalization with overlap

---- Real-time Memory Report at c_bands before calling an iterative solver
          2441 MiB given to the printing process from OS
         -1818 MiB allocation reported by mallinfo(arena+hblkhd)
         57627 MiB available memory on the node where the printing process lives
     GPU memory used/free/total (MiB): 1602 / 14678 / 16280
------------------
     ethr =  3.44E-10,  avg # of iterations =  4.1
     Minimization algorithm failed to find Fermi energy: reverting to bisection
     Possible cause: smearing is larger than the electronic band-gap.

     total cpu time spent up to now is      322.8 secs

     WARNING: integrated charge=    57.99717573, expected=    58.00000000

     total energy              =    -530.23129027 Ry
     estimated scf accuracy    <       0.00000668 Ry

     total magnetization       =     0.05 Bohr mag/cell
     absolute magnetization    =     0.08 Bohr mag/cell
[tb_dev] Currently allocated     3.67E+00 Mbytes, locked:    0 /  10
[tb_pin] Currently allocated     0.00E+00 Mbytes, locked:    0 /   0

     iteration # 24     ecut=    60.00 Ry     beta= 0.40
     Davidson diagonalization with overlap

---- Real-time Memory Report at c_bands before calling an iterative solver
          2441 MiB given to the printing process from OS
         -1818 MiB allocation reported by mallinfo(arena+hblkhd)
         57628 MiB available memory on the node where the printing process lives
     GPU memory used/free/total (MiB): 1602 / 14678 / 16280
------------------
     ethr =  3.44E-10,  avg # of iterations =  4.8
     Minimization algorithm failed to find Fermi energy: reverting to bisection
     Possible cause: smearing is larger than the electronic band-gap.

     total cpu time spent up to now is      339.2 secs

     total energy              =    -530.23127545 Ry
     estimated scf accuracy    <       0.00000339 Ry

     total magnetization       =     0.04 Bohr mag/cell
     absolute magnetization    =     0.06 Bohr mag/cell
[tb_dev] Currently allocated     3.67E+00 Mbytes, locked:    0 /  10
[tb_pin] Currently allocated     0.00E+00 Mbytes, locked:    0 /   0

     iteration # 25     ecut=    60.00 Ry     beta= 0.40
     Davidson diagonalization with overlap

---- Real-time Memory Report at c_bands before calling an iterative solver
          2441 MiB given to the printing process from OS
         -1818 MiB allocation reported by mallinfo(arena+hblkhd)
         57628 MiB available memory on the node where the printing process lives
     GPU memory used/free/total (MiB): 1602 / 14678 / 16280
------------------
     ethr =  3.44E-10,  avg # of iterations =  5.4

     total cpu time spent up to now is      357.6 secs

     WARNING: integrated charge=    57.99797801, expected=    58.00000000

     total energy              =    -530.22922871 Ry
     estimated scf accuracy    <       0.00003877 Ry

     total magnetization       =    -0.00 Bohr mag/cell
     absolute magnetization    =     0.01 Bohr mag/cell
[tb_dev] Currently allocated     3.67E+00 Mbytes, locked:    0 /  10
[tb_pin] Currently allocated     0.00E+00 Mbytes, locked:    0 /   0

     iteration # 26     ecut=    60.00 Ry     beta= 0.40
     Davidson diagonalization with overlap

---- Real-time Memory Report at c_bands before calling an iterative solver
          2441 MiB given to the printing process from OS
         -1818 MiB allocation reported by mallinfo(arena+hblkhd)
         57627 MiB available memory on the node where the printing process lives
     GPU memory used/free/total (MiB): 1602 / 14678 / 16280
------------------
     ethr =  3.44E-10,  avg # of iterations =  5.1

     total cpu time spent up to now is      375.0 secs

     WARNING: integrated charge=    57.99797341, expected=    58.00000000

     total energy              =    -530.22919996 Ry
     estimated scf accuracy    <       0.00005794 Ry

     total magnetization       =    -0.00 Bohr mag/cell
     absolute magnetization    =     0.03 Bohr mag/cell
[tb_dev] Currently allocated     3.67E+00 Mbytes, locked:    0 /  10
[tb_pin] Currently allocated     0.00E+00 Mbytes, locked:    0 /   0

     iteration # 27     ecut=    60.00 Ry     beta= 0.40
     Davidson diagonalization with overlap

---- Real-time Memory Report at c_bands before calling an iterative solver
          2441 MiB given to the printing process from OS
         -1818 MiB allocation reported by mallinfo(arena+hblkhd)
         57628 MiB available memory on the node where the printing process lives
     GPU memory used/free/total (MiB): 1602 / 14678 / 16280
------------------
     ethr =  3.44E-10,  avg # of iterations =  4.9
     Minimization algorithm failed to find Fermi energy: reverting to bisection
     Possible cause: smearing is larger than the electronic band-gap.

     total cpu time spent up to now is      391.6 secs

     WARNING: integrated charge=    57.99773920, expected=    58.00000000

     total energy              =    -530.23129154 Ry
     estimated scf accuracy    <       0.00000181 Ry

     total magnetization       =     0.04 Bohr mag/cell
     absolute magnetization    =     0.06 Bohr mag/cell
[tb_dev] Currently allocated     3.67E+00 Mbytes, locked:    0 /  10
[tb_pin] Currently allocated     0.00E+00 Mbytes, locked:    0 /   0

     iteration # 28     ecut=    60.00 Ry     beta= 0.40
     Davidson diagonalization with overlap

---- Real-time Memory Report at c_bands before calling an iterative solver
          2441 MiB given to the printing process from OS
         -1818 MiB allocation reported by mallinfo(arena+hblkhd)
         57629 MiB available memory on the node where the printing process lives
     GPU memory used/free/total (MiB): 1602 / 14678 / 16280
------------------
     ethr =  3.44E-10,  avg # of iterations =  4.0
     Minimization algorithm failed to find Fermi energy: reverting to bisection
     Possible cause: smearing is larger than the electronic band-gap.

     total cpu time spent up to now is      406.1 secs

     WARNING: integrated charge=    57.99767766, expected=    58.00000000

     total energy              =    -530.23129136 Ry
     estimated scf accuracy    <       0.00000210 Ry

     total magnetization       =     0.04 Bohr mag/cell
     absolute magnetization    =     0.06 Bohr mag/cell
[tb_dev] Currently allocated     3.67E+00 Mbytes, locked:    0 /  10
[tb_pin] Currently allocated     0.00E+00 Mbytes, locked:    0 /   0

     iteration # 29     ecut=    60.00 Ry     beta= 0.40
     Davidson diagonalization with overlap

---- Real-time Memory Report at c_bands before calling an iterative solver
          2441 MiB given to the printing process from OS
         -1818 MiB allocation reported by mallinfo(arena+hblkhd)
         57629 MiB available memory on the node where the printing process lives
     GPU memory used/free/total (MiB): 1602 / 14678 / 16280
------------------
     ethr =  3.44E-10,  avg # of iterations =  2.5
     Minimization algorithm failed to find Fermi energy: reverting to bisection
     Possible cause: smearing is larger than the electronic band-gap.

     total cpu time spent up to now is      417.9 secs

     WARNING: integrated charge=    57.99763494, expected=    58.00000000

     total energy              =    -530.23129140 Ry
     estimated scf accuracy    <       0.00000217 Ry

     total magnetization       =     0.04 Bohr mag/cell
     absolute magnetization    =     0.07 Bohr mag/cell
[tb_dev] Currently allocated     3.67E+00 Mbytes, locked:    0 /  10
[tb_pin] Currently allocated     0.00E+00 Mbytes, locked:    0 /   0

     iteration # 30     ecut=    60.00 Ry     beta= 0.40
     Davidson diagonalization with overlap

---- Real-time Memory Report at c_bands before calling an iterative solver
          2441 MiB given to the printing process from OS
         -1818 MiB allocation reported by mallinfo(arena+hblkhd)
         57629 MiB available memory on the node where the printing process lives
     GPU memory used/free/total (MiB): 1602 / 14678 / 16280
------------------
     ethr =  3.44E-10,  avg # of iterations =  1.0
     Minimization algorithm failed to find Fermi energy: reverting to bisection
     Possible cause: smearing is larger than the electronic band-gap.

     total cpu time spent up to now is      427.4 secs

     WARNING: integrated charge=    57.99764041, expected=    58.00000000

     total energy              =    -530.23129121 Ry
     estimated scf accuracy    <       0.00000226 Ry

     total magnetization       =     0.04 Bohr mag/cell
     absolute magnetization    =     0.07 Bohr mag/cell
[tb_dev] Currently allocated     3.67E+00 Mbytes, locked:    0 /  10
[tb_pin] Currently allocated     0.00E+00 Mbytes, locked:    0 /   0

     iteration # 31     ecut=    60.00 Ry     beta= 0.40
     Davidson diagonalization with overlap

---- Real-time Memory Report at c_bands before calling an iterative solver
          2441 MiB given to the printing process from OS
         -1818 MiB allocation reported by mallinfo(arena+hblkhd)
         57629 MiB available memory on the node where the printing process lives
     GPU memory used/free/total (MiB): 1602 / 14678 / 16280
------------------
     ethr =  3.44E-10,  avg # of iterations =  2.0
     Minimization algorithm failed to find Fermi energy: reverting to bisection
     Possible cause: smearing is larger than the electronic band-gap.

     total cpu time spent up to now is      438.3 secs

     WARNING: integrated charge=    57.99762266, expected=    58.00000000

     total energy              =    -530.23128989 Ry
     estimated scf accuracy    <       0.00000225 Ry

     total magnetization       =     0.04 Bohr mag/cell
     absolute magnetization    =     0.07 Bohr mag/cell
[tb_dev] Currently allocated     3.67E+00 Mbytes, locked:    0 /  10
[tb_pin] Currently allocated     0.00E+00 Mbytes, locked:    0 /   0

     iteration # 32     ecut=    60.00 Ry     beta= 0.40
     Davidson diagonalization with overlap

---- Real-time Memory Report at c_bands before calling an iterative solver
          2441 MiB given to the printing process from OS
         -1818 MiB allocation reported by mallinfo(arena+hblkhd)
         57629 MiB available memory on the node where the printing process lives
     GPU memory used/free/total (MiB): 1602 / 14678 / 16280
------------------
     ethr =  3.44E-10,  avg # of iterations =  4.2
     Minimization algorithm failed to find Fermi energy: reverting to bisection
     Possible cause: smearing is larger than the electronic band-gap.

     total cpu time spent up to now is      453.4 secs

     WARNING: integrated charge=    57.99743150, expected=    58.00000000

     total energy              =    -530.23129032 Ry
     estimated scf accuracy    <       0.00000237 Ry

     total magnetization       =     0.05 Bohr mag/cell
     absolute magnetization    =     0.07 Bohr mag/cell
[tb_dev] Currently allocated     3.67E+00 Mbytes, locked:    0 /  10
[tb_pin] Currently allocated     0.00E+00 Mbytes, locked:    0 /   0

     iteration # 33     ecut=    60.00 Ry     beta= 0.40
     Davidson diagonalization with overlap

---- Real-time Memory Report at c_bands before calling an iterative solver
          2441 MiB given to the printing process from OS
         -1818 MiB allocation reported by mallinfo(arena+hblkhd)
         57629 MiB available memory on the node where the printing process lives
     GPU memory used/free/total (MiB): 1602 / 14678 / 16280
------------------
     ethr =  3.44E-10,  avg # of iterations =  1.0
     Minimization algorithm failed to find Fermi energy: reverting to bisection
     Possible cause: smearing is larger than the electronic band-gap.

     total cpu time spent up to now is      462.8 secs

     WARNING: integrated charge=    57.99775350, expected=    58.00000000

     total energy              =    -530.23129072 Ry
     estimated scf accuracy    <       0.00000274 Ry

     total magnetization       =     0.05 Bohr mag/cell
     absolute magnetization    =     0.07 Bohr mag/cell
[tb_dev] Currently allocated     3.67E+00 Mbytes, locked:    0 /  10
[tb_pin] Currently allocated     0.00E+00 Mbytes, locked:    0 /   0

     iteration # 34     ecut=    60.00 Ry     beta= 0.40
     Davidson diagonalization with overlap

---- Real-time Memory Report at c_bands before calling an iterative solver
          2441 MiB given to the printing process from OS
         -1818 MiB allocation reported by mallinfo(arena+hblkhd)
         57629 MiB available memory on the node where the printing process lives
     GPU memory used/free/total (MiB): 1602 / 14678 / 16280
------------------
     ethr =  3.44E-10,  avg # of iterations =  4.1
     Minimization algorithm failed to find Fermi energy: reverting to bisection
     Possible cause: smearing is larger than the electronic band-gap.

     total cpu time spent up to now is      477.7 secs

     WARNING: integrated charge=    57.99794203, expected=    58.00000000

     total energy              =    -530.23129142 Ry
     estimated scf accuracy    <       0.00000207 Ry

     total magnetization       =     0.04 Bohr mag/cell
     absolute magnetization    =     0.07 Bohr mag/cell
[tb_dev] Currently allocated     3.67E+00 Mbytes, locked:    0 /  10
[tb_pin] Currently allocated     0.00E+00 Mbytes, locked:    0 /   0

     iteration # 35     ecut=    60.00 Ry     beta= 0.40
     Davidson diagonalization with overlap

---- Real-time Memory Report at c_bands before calling an iterative solver
          2441 MiB given to the printing process from OS
         -1818 MiB allocation reported by mallinfo(arena+hblkhd)
         57624 MiB available memory on the node where the printing process lives
     GPU memory used/free/total (MiB): 1602 / 14678 / 16280
------------------
     ethr =  3.44E-10,  avg # of iterations =  3.7
     Minimization algorithm failed to find Fermi energy: reverting to bisection
     Possible cause: smearing is larger than the electronic band-gap.

     total cpu time spent up to now is      491.5 secs

     total energy              =    -530.23127584 Ry
     estimated scf accuracy    <       0.00000174 Ry

     total magnetization       =     0.04 Bohr mag/cell
     absolute magnetization    =     0.06 Bohr mag/cell
[tb_dev] Currently allocated     3.67E+00 Mbytes, locked:    0 /  10
[tb_pin] Currently allocated     0.00E+00 Mbytes, locked:    0 /   0

     iteration # 36     ecut=    60.00 Ry     beta= 0.40
     Davidson diagonalization with overlap

---- Real-time Memory Report at c_bands before calling an iterative solver
          2441 MiB given to the printing process from OS
         -1818 MiB allocation reported by mallinfo(arena+hblkhd)
         57628 MiB available memory on the node where the printing process lives
     GPU memory used/free/total (MiB): 1602 / 14678 / 16280
------------------
     ethr =  3.44E-10,  avg # of iterations =  5.6

     total cpu time spent up to now is      510.3 secs

     WARNING: integrated charge=    57.99935363, expected=    58.00000000

     total energy              =    -530.22923695 Ry
     estimated scf accuracy    <       0.00003807 Ry

     total magnetization       =    -0.00 Bohr mag/cell
     absolute magnetization    =     0.01 Bohr mag/cell
[tb_dev] Currently allocated     3.67E+00 Mbytes, locked:    0 /  10
[tb_pin] Currently allocated     0.00E+00 Mbytes, locked:    0 /   0

     iteration # 37     ecut=    60.00 Ry     beta= 0.40
     Davidson diagonalization with overlap

---- Real-time Memory Report at c_bands before calling an iterative solver
          2441 MiB given to the printing process from OS
         -1818 MiB allocation reported by mallinfo(arena+hblkhd)
         57629 MiB available memory on the node where the printing process lives
     GPU memory used/free/total (MiB): 1602 / 14678 / 16280
------------------
     ethr =  3.44E-10,  avg # of iterations =  4.2

     total cpu time spent up to now is      525.3 secs

     WARNING: integrated charge=    57.99819936, expected=    58.00000000

[...]
     Possible cause: smearing is larger than the electronic band-gap.

     total cpu time spent up to now is      914.3 secs

     WARNING: integrated charge=    57.99998341, expected=    58.00000000

     total energy              =    -530.23127480 Ry
     estimated scf accuracy    <       0.00000483 Ry

     total magnetization       =     0.05 Bohr mag/cell
     absolute magnetization    =     0.07 Bohr mag/cell
[tb_dev] Currently allocated     3.67E+00 Mbytes, locked:    0 /  10
[tb_pin] Currently allocated     0.00E+00 Mbytes, locked:    0 /   0

     iteration # 68     ecut=    60.00 Ry     beta= 0.40
     Davidson diagonalization with overlap

---- Real-time Memory Report at c_bands before calling an iterative solver
          2441 MiB given to the printing process from OS
         -1818 MiB allocation reported by mallinfo(arena+hblkhd)
         57630 MiB available memory on the node where the printing process lives
     GPU memory used/free/total (MiB): 1602 / 14678 / 16280
------------------
     ethr =  3.44E-10,  avg # of iterations =  5.6

     total cpu time spent up to now is      932.8 secs

     WARNING: integrated charge=    57.99735900, expected=    58.00000000

     total energy              =    -530.22920231 Ry
     estimated scf accuracy    <       0.00003968 Ry

     total magnetization       =    -0.00 Bohr mag/cell
     absolute magnetization    =     0.02 Bohr mag/cell
[tb_dev] Currently allocated     3.67E+00 Mbytes, locked:    0 /  10
[tb_pin] Currently allocated     0.00E+00 Mbytes, locked:    0 /   0

     iteration # 69     ecut=    60.00 Ry     beta= 0.40
     Davidson diagonalization with overlap

---- Real-time Memory Report at c_bands before calling an iterative solver
          2441 MiB given to the printing process from OS
         -1818 MiB allocation reported by mallinfo(arena+hblkhd)
         57630 MiB available memory on the node where the printing process lives
     GPU memory used/free/total (MiB): 1602 / 14678 / 16280
------------------
     ethr =  3.44E-10,  avg # of iterations =  5.5
     Minimization algorithm failed to find Fermi energy: reverting to bisection
     Possible cause: smearing is larger than the electronic band-gap.

     total cpu time spent up to now is      951.2 secs

     WARNING: integrated charge=    57.99643494, expected=    58.00000000

     total energy              =    -530.23128955 Ry
     estimated scf accuracy    <       0.00000282 Ry

     total magnetization       =     0.04 Bohr mag/cell
     absolute magnetization    =     0.06 Bohr mag/cell
[tb_dev] Currently allocated     3.67E+00 Mbytes, locked:    0 /  10
[tb_pin] Currently allocated     0.00E+00 Mbytes, locked:    0 /   0

     iteration # 70     ecut=    60.00 Ry     beta= 0.40
     Davidson diagonalization with overlap

---- Real-time Memory Report at c_bands before calling an iterative solver
          2441 MiB given to the printing process from OS
         -1818 MiB allocation reported by mallinfo(arena+hblkhd)
         57630 MiB available memory on the node where the printing process lives
     GPU memory used/free/total (MiB): 1602 / 14678 / 16280
------------------
     ethr =  3.44E-10,  avg # of iterations =  4.6
     Minimization algorithm failed to find Fermi energy: reverting to bisection
     Possible cause: smearing is larger than the electronic band-gap.

     total cpu time spent up to now is      967.3 secs

     WARNING: integrated charge=    57.99595351, expected=    58.00000000

     total energy              =    -530.23128921 Ry
     estimated scf accuracy    <       0.00000503 Ry

     total magnetization       =     0.05 Bohr mag/cell
     absolute magnetization    =     0.08 Bohr mag/cell
[tb_dev] Currently allocated     3.67E+00 Mbytes, locked:    0 /  10
[tb_pin] Currently allocated     0.00E+00 Mbytes, locked:    0 /   0

     iteration # 71     ecut=    60.00 Ry     beta= 0.40
     Davidson diagonalization with overlap

---- Real-time Memory Report at c_bands before calling an iterative solver
          2441 MiB given to the printing process from OS
         -1818 MiB allocation reported by mallinfo(arena+hblkhd)
         57630 MiB available memory on the node where the printing process lives
     GPU memory used/free/total (MiB): 1602 / 14678 / 16280
------------------
     ethr =  3.44E-10,  avg # of iterations =  4.2
     Minimization algorithm failed to find Fermi energy: reverting to bisection
     Possible cause: smearing is larger than the electronic band-gap.

     total cpu time spent up to now is      982.5 secs

     WARNING: integrated charge=    57.99574703, expected=    58.00000000

     total energy              =    -530.23128931 Ry
     estimated scf accuracy    <       0.00000649 Ry

     total magnetization       =     0.05 Bohr mag/cell
     absolute magnetization    =     0.08 Bohr mag/cell
[tb_dev] Currently allocated     3.67E+00 Mbytes, locked:    0 /  10
[tb_pin] Currently allocated     0.00E+00 Mbytes, locked:    0 /   0

     iteration # 72     ecut=    60.00 Ry     beta= 0.40
     Davidson diagonalization with overlap

---- Real-time Memory Report at c_bands before calling an iterative solver
          2441 MiB given to the printing process from OS
         -1818 MiB allocation reported by mallinfo(arena+hblkhd)
         57630 MiB available memory on the node where the printing process lives
     GPU memory used/free/total (MiB): 1602 / 14678 / 16280
------------------
     ethr =  3.44E-10,  avg # of iterations =  2.7
     Minimization algorithm failed to find Fermi energy: reverting to bisection
     Possible cause: smearing is larger than the electronic band-gap.

     total cpu time spent up to now is      994.7 secs

     WARNING: integrated charge=    57.99611585, expected=    58.00000000

     total energy              =    -530.23128983 Ry
     estimated scf accuracy    <       0.00000720 Ry

     total magnetization       =     0.05 Bohr mag/cell
     absolute magnetization    =     0.08 Bohr mag/cell
[tb_dev] Currently allocated     3.67E+00 Mbytes, locked:    0 /  10
[tb_pin] Currently allocated     0.00E+00 Mbytes, locked:    0 /   0

     iteration # 73     ecut=    60.00 Ry     beta= 0.40
     Davidson diagonalization with overlap

---- Real-time Memory Report at c_bands before calling an iterative solver
          2441 MiB given to the printing process from OS
         -1818 MiB allocation reported by mallinfo(arena+hblkhd)
         57630 MiB available memory on the node where the printing process lives
     GPU memory used/free/total (MiB): 1602 / 14678 / 16280
------------------
     ethr =  3.44E-10,  avg # of iterations =  3.5
     Minimization algorithm failed to find Fermi energy: reverting to bisection
     Possible cause: smearing is larger than the electronic band-gap.

     total cpu time spent up to now is     1008.2 secs

     WARNING: integrated charge=    57.99616379, expected=    58.00000000

     total energy              =    -530.23129026 Ry
     estimated scf accuracy    <       0.00000595 Ry

     total magnetization       =     0.05 Bohr mag/cell
     absolute magnetization    =     0.08 Bohr mag/cell
[tb_dev] Currently allocated     3.67E+00 Mbytes, locked:    0 /  10
[tb_pin] Currently allocated     0.00E+00 Mbytes, locked:    0 /   0

     iteration # 74     ecut=    60.00 Ry     beta= 0.40
     Davidson diagonalization with overlap

---- Real-time Memory Report at c_bands before calling an iterative solver
          2441 MiB given to the printing process from OS
         -1818 MiB allocation reported by mallinfo(arena+hblkhd)
         57630 MiB available memory on the node where the printing process lives
     GPU memory used/free/total (MiB): 1602 / 14678 / 16280
------------------
     ethr =  3.44E-10,  avg # of iterations =  2.0
     Minimization algorithm failed to find Fermi energy: reverting to bisection
     Possible cause: smearing is larger than the electronic band-gap.

     total cpu time spent up to now is     1019.1 secs

     WARNING: integrated charge=    57.99613818, expected=    58.00000000

     total energy              =    -530.23129025 Ry
     estimated scf accuracy    <       0.00000580 Ry

     total magnetization       =     0.05 Bohr mag/cell
     absolute magnetization    =     0.08 Bohr mag/cell
[tb_dev] Currently allocated     3.67E+00 Mbytes, locked:    0 /  10
[tb_pin] Currently allocated     0.00E+00 Mbytes, locked:    0 /   0

     iteration # 75     ecut=    60.00 Ry     beta= 0.40
     Davidson diagonalization with overlap

---- Real-time Memory Report at c_bands before calling an iterative solver
          2441 MiB given to the printing process from OS
         -1818 MiB allocation reported by mallinfo(arena+hblkhd)
         57630 MiB available memory on the node where the printing process lives
     GPU memory used/free/total (MiB): 1602 / 14678 / 16280
------------------
     ethr =  3.44E-10,  avg # of iterations =  1.0
     Minimization algorithm failed to find Fermi energy: reverting to bisection
     Possible cause: smearing is larger than the electronic band-gap.

     total cpu time spent up to now is     1028.6 secs

     WARNING: integrated charge=    57.99581104, expected=    58.00000000

     total energy              =    -530.23128951 Ry
     estimated scf accuracy    <       0.00000589 Ry

     total magnetization       =     0.05 Bohr mag/cell
     absolute magnetization    =     0.08 Bohr mag/cell
[tb_dev] Currently allocated     3.67E+00 Mbytes, locked:    0 /  10
[tb_pin] Currently allocated     0.00E+00 Mbytes, locked:    0 /   0

     iteration # 76     ecut=    60.00 Ry     beta= 0.40
     Davidson diagonalization with overlap

---- Real-time Memory Report at c_bands before calling an iterative solver
          2441 MiB given to the printing process from OS
         -1818 MiB allocation reported by mallinfo(arena+hblkhd)
         57630 MiB available memory on the node where the printing process lives
     GPU memory used/free/total (MiB): 1602 / 14678 / 16280
------------------
     ethr =  3.44E-10,  avg # of iterations =  3.6
     Minimization algorithm failed to find Fermi energy: reverting to bisection
     Possible cause: smearing is larger than the electronic band-gap.

     total cpu time spent up to now is     1042.3 secs

     WARNING: integrated charge=    57.99590336, expected=    58.00000000

     total energy              =    -530.23128986 Ry
     estimated scf accuracy    <       0.00000701 Ry

     total magnetization       =     0.05 Bohr mag/cell
     absolute magnetization    =     0.08 Bohr mag/cell
[tb_dev] Currently allocated     3.67E+00 Mbytes, locked:    0 /  10
[tb_pin] Currently allocated     0.00E+00 Mbytes, locked:    0 /   0

     iteration # 77     ecut=    60.00 Ry     beta= 0.40
     Davidson diagonalization with overlap

---- Real-time Memory Report at c_bands before calling an iterative solver
          2441 MiB given to the printing process from OS
         -1818 MiB allocation reported by mallinfo(arena+hblkhd)
         57630 MiB available memory on the node where the printing process lives
     GPU memory used/free/total (MiB): 1602 / 14678 / 16280
------------------
     ethr =  3.44E-10,  avg # of iterations =  1.2
     Minimization algorithm failed to find Fermi energy: reverting to bisection
     Possible cause: smearing is larger than the electronic band-gap.

     total cpu time spent up to now is     1052.0 secs

     total energy              =    -530.23126084 Ry
     estimated scf accuracy    <       0.00000668 Ry

     total magnetization       =     0.05 Bohr mag/cell
     absolute magnetization    =     0.08 Bohr mag/cell
[tb_dev] Currently allocated     3.67E+00 Mbytes, locked:    0 /  10
[tb_pin] Currently allocated     0.00E+00 Mbytes, locked:    0 /   0

     iteration # 78     ecut=    60.00 Ry     beta= 0.40
     Davidson diagonalization with overlap

---- Real-time Memory Report at c_bands before calling an iterative solver
          2441 MiB given to the printing process from OS
         -1818 MiB allocation reported by mallinfo(arena+hblkhd)
         57630 MiB available memory on the node where the printing process lives
     GPU memory used/free/total (MiB): 1602 / 14678 / 16280
------------------
     ethr =  3.44E-10,  avg # of iterations =  6.9

     total cpu time spent up to now is     1073.4 secs

     WARNING: integrated charge=    57.99715987, expected=    58.00000000

     total energy              =    -530.22920829 Ry
     estimated scf accuracy    <       0.00003871 Ry

     total magnetization       =    -0.00 Bohr mag/cell
     absolute magnetization    =     0.02 Bohr mag/cell
[tb_dev] Currently allocated     3.67E+00 Mbytes, locked:    0 /  10
[tb_pin] Currently allocated     0.00E+00 Mbytes, locked:    0 /   0

     iteration # 79     ecut=    60.00 Ry     beta= 0.40
     Davidson diagonalization with overlap

---- Real-time Memory Report at c_bands before calling an iterative solver
          2441 MiB given to the printing process from OS
         -1818 MiB allocation reported by mallinfo(arena+hblkhd)
         57630 MiB available memory on the node where the printing process lives
     GPU memory used/free/total (MiB): 1602 / 14678 / 16280
------------------
     ethr =  3.44E-10,  avg # of iterations =  5.5
     Minimization algorithm failed to find Fermi energy: reverting to bisection
     Possible cause: smearing is larger than the electronic band-gap.

     total cpu time spent up to now is     1092.1 secs

     WARNING: integrated charge=    57.99691396, expected=    58.00000000

     total energy              =    -530.23129190 Ry
     estimated scf accuracy    <       0.00000324 Ry

     total magnetization       =     0.04 Bohr mag/cell
     absolute magnetization    =     0.06 Bohr mag/cell
[tb_dev] Currently allocated     3.67E+00 Mbytes, locked:    0 /  10
[tb_pin] Currently allocated     0.00E+00 Mbytes, locked:    0 /   0

     iteration # 80     ecut=    60.00 Ry     beta= 0.40
     Davidson diagonalization with overlap

---- Real-time Memory Report at c_bands before calling an iterative solver
          2441 MiB given to the printing process from OS
         -1818 MiB allocation reported by mallinfo(arena+hblkhd)
         57630 MiB available memory on the node where the printing process lives
     GPU memory used/free/total (MiB): 1602 / 14678 / 16280
------------------
     ethr =  3.44E-10,  avg # of iterations =  2.5
     Minimization algorithm failed to find Fermi energy: reverting to bisection
     Possible cause: smearing is larger than the electronic band-gap.

     total cpu time spent up to now is     1103.9 secs

     WARNING: integrated charge=    57.99638858, expected=    58.00000000

     total energy              =    -530.23129074 Ry
     estimated scf accuracy    <       0.00000383 Ry

     total magnetization       =     0.04 Bohr mag/cell
     absolute magnetization    =     0.07 Bohr mag/cell

     End of self-consistent calculation

     convergence NOT achieved after  80 iterations: stopping

     Writing config to output data dir ./out/aiida.save/
 
     init_run     :     17.20s CPU      9.77s WALL (       1 calls)
     electrons    :   1189.13s CPU   1093.61s WALL (       1 calls)

     Called by init_run:
     wfcinit      :      5.61s CPU      7.52s WALL (       1 calls)
                                        7.52s GPU  (       1 calls)
     wfcinit:atom :      0.10s CPU      0.14s WALL (     392 calls)
                                        0.14s GPU  (     392 calls)
     wfcinit:wfcr :      3.09s CPU      3.95s WALL (     392 calls)
                                        3.95s GPU  (     392 calls)
     potinit      :      1.80s CPU      0.16s WALL (       1 calls)
     hinit0       :      7.26s CPU      1.31s WALL (       1 calls)

     Called by electrons:
     c_bands      :    976.65s CPU    943.12s WALL (      80 calls)
     sum_band     :    126.19s CPU    142.37s WALL (      80 calls)
     v_of_rho     :     20.13s CPU      1.80s WALL (      81 calls)
     v_h          :      3.24s CPU      0.28s WALL (      81 calls)
     v_xc         :     16.89s CPU      1.52s WALL (      81 calls)
     newd         :     30.44s CPU      3.06s WALL (      81 calls)
                                        3.06s GPU  (      81 calls)
     mix_rho      :     28.52s CPU      2.76s WALL (      80 calls)

     Called by c_bands:
     init_us_2    :     63.63s CPU     67.40s WALL (   63112 calls)
     init_us_2:gp :     62.54s CPU     66.37s WALL (   63112 calls)
     cegterg      :    850.53s CPU    822.74s WALL (   31360 calls)

     Called by sum_band:
     sum_band:wei :      2.13s CPU      2.13s WALL (      80 calls)
                                        2.13s GPU  (      80 calls)
     sum_band:loo :    120.09s CPU    136.19s WALL (      80 calls)
                                      136.19s GPU  (      80 calls)
     sum_band:buf :     31.38s CPU     35.11s WALL (   31360 calls)
                                       34.92s GPU  (   31360 calls)
     sum_band:ini :     28.83s CPU     33.36s WALL (   31360 calls)
                                       33.19s GPU  (   31360 calls)
     sum_band:cal :      0.80s CPU      5.62s WALL (   31360 calls)
                                        5.09s GPU  (   31360 calls)
     sum_band:bec :      6.73s CPU      8.12s WALL (   31360 calls)
                                        7.91s GPU  (   31360 calls)
     addusdens    :      2.00s CPU      2.06s WALL (      80 calls)
                                        2.06s GPU  (      80 calls)
     addusd:skk   :      0.03s CPU      0.03s WALL (     240 calls)
                                        0.03s GPU  (     240 calls)

     Called by *egterg:
     cdiaghg      :    345.39s CPU    351.69s WALL (  135021 calls)
                                      350.79s GPU  (  135021 calls)
     cegterg:over :     23.36s CPU     21.90s WALL (  103661 calls)
     cegterg:upda :     33.71s CPU     32.51s WALL (  103661 calls)
     cegterg:last :     11.49s CPU     10.88s WALL (   56139 calls)
     h_psi        :    360.05s CPU    337.35s WALL (  135413 calls)
                                      336.32s GPU  (  135413 calls)
     s_psi        :     15.82s CPU     29.72s WALL (  135413 calls)
                                       27.93s GPU  (  135413 calls)
     g_psi        :      0.75s CPU      2.92s WALL (  103661 calls)
                                        2.24s GPU  (  103661 calls)

     Called by h_psi:
     h_psi:calbec :      4.67s CPU     21.76s WALL (  135413 calls)
                                       20.89s GPU  (  135413 calls)
     vloc_psi     :    287.01s CPU    269.77s WALL (  135413 calls)
                                      268.92s GPU  (  135413 calls)
     add_vuspsi   :     27.43s CPU     36.63s WALL (  135413 calls)
                                       35.78s GPU  (  135413 calls)

     General routines
     calbec       :      3.96s CPU      3.84s WALL (  166773 calls)
     fft          :      2.31s CPU      0.40s WALL (    2023 calls)
                                        0.32s GPU  (    1861 calls)
     ffts         :      0.07s CPU      0.03s WALL (     322 calls)
                                        0.01s GPU  (     160 calls)
     fftw         :     12.31s CPU    195.49s WALL (  618922 calls)
                                      192.03s GPU  (  618922 calls)
     interpolate  :      2.99s CPU      0.27s WALL (     162 calls)
     davcio       :      1.22s CPU      1.01s WALL (     410 calls)
 
     Parallel routines
 
     PWSCF        :  20m 9.95s CPU  18m25.17s WALL

 
   This run was terminated on:  18:27:47  23Oct2023            

=------------------------------------------------------------------------------=
   JOB DONE.
=------------------------------------------------------------------------------=
