
     Program PWSCF v.7.2 starts on 22Oct2023 at 18:44: 1 

     This program is part of the open-source Quantum ESPRESSO suite
     for quantum simulation of materials; please cite
         "P. Giannozzi et al., J. Phys.:Condens. Matter 21 395502 (2009);
         "P. Giannozzi et al., J. Phys.:Condens. Matter 29 465901 (2017);
         "P. Giannozzi et al., J. Chem. Phys. 152 154105 (2020);
          URL http://www.quantum-espresso.org", 
     in publications or presentations arising from this work. More details at
     http://www.quantum-espresso.org/quote

     Parallel version (MPI & OpenMP), running on      12 processor cores
     Number of MPI processes:                 1
     Threads/MPI process:                    12

     MPI processes distributed on     1 nodes
     47268 MiB available memory on the printing compute node when the environment starts
 
     Reading input from aiida.in

     Current dimensions of program PWSCF are:
     Max number of different atomic species (ntypx) = 10
     Max number of k-points (npk) =  40000
     Max angular momentum in pseudopotentials (lmaxx) =  4
     Message from routine setup:
     using ibrav=0 with symmetry is DISCOURAGED, use correct ibrav instead
 
     Subspace diagonalization in iterative solution of the eigenvalue problem:
     a serial algorithm will be used

 
     G-vector sticks info
     --------------------
     sticks:   dense  smooth     PW     G-vecs:    dense   smooth      PW
     Sum        6391    2107    595               337381    64767    9841
 
     Using Slab Decomposition
 


     bravais-lattice index     =            0
     lattice parameter (alat)  =      10.9037  a.u.
     unit-cell volume          =     916.6575 (a.u.)^3
     number of atoms/cell      =            8
     number of atomic types    =            3
     number of electrons       =        69.00
     number of Kohn-Sham states=           42
     kinetic-energy cutoff     =      65.0000  Ry
     charge density cutoff     =     780.0000  Ry
     scf convergence threshold =      1.6E-09
     mixing beta               =       0.4000
     number of iterations used =            8  plain     mixing
     Exchange-correlation= SLA  PW   PSX  PSC
                           (   1   4  10   8   0   0   0)

     GPU acceleration is ACTIVE.


     GPU used by master process:

        Device Number: 0
        Device name: Tesla P100-PCIE-16GB
        Compute capability : 60
        Ratio of single to double precision performance  : 2
        Memory Clock Rate (KHz): 715000
        Memory Bus Width (bits): 4096
        Peak Memory Bandwidth (GB/s): 732.16

     celldm(1)=  10.903703  celldm(2)=   0.000000  celldm(3)=   0.000000
     celldm(4)=   0.000000  celldm(5)=   0.000000  celldm(6)=   0.000000

     crystal axes: (cart. coord. in units of alat)
               a(1) = (   0.000000   0.707107   0.707107 )  
               a(2) = (   0.707107   0.000000   0.707107 )  
               a(3) = (   0.707107   0.707107   0.000000 )  

     reciprocal axes: (cart. coord. in units 2 pi/alat)
               b(1) = ( -0.707107  0.707107  0.707107 )  
               b(2) = (  0.707107 -0.707107  0.707107 )  
               b(3) = (  0.707107  0.707107 -0.707107 )  


     PseudoPot. # 1 for F  read from file:
     ./pseudo/f_pbesol_v1.4.uspp.F.UPF
     MD5 check sum: d2815ecb49b17b99c5724ffd2f9bbd8d
     Pseudo is Ultrasoft, Zval =  7.0
     Generated by new atomic code, or converted to UPF format
     Using radial grid of  799 points,  4 beta functions with: 
                l(1) =   0
                l(2) =   0
                l(3) =   1
                l(4) =   1
     Q(r) pseudized with  8 coefficients,  rinner =    0.950   0.950   0.950


     PseudoPot. # 2 for Hf read from file:
     ./pseudo/Hf-sp.oncvpsp.upf
     MD5 check sum: 3619c98de2ee908b1d969add25be4863
     Pseudo is Norm-conserving + core correction, Zval = 12.0
     Generated using ONCVPSP code by D. R. Hamann
     Using radial grid of 1656 points,  8 beta functions with: 
                l(1) =   0
                l(2) =   0
                l(3) =   1
                l(4) =   1
                l(5) =   2
                l(6) =   2
                l(7) =   3
                l(8) =   3

     PseudoPot. # 3 for Mn read from file:
     ./pseudo/mn_pbesol_v1.5.uspp.F.UPF
     MD5 check sum: 0716d5f563e6e95a34f9080f4c78c109
     Pseudo is Ultrasoft + core correction, Zval = 15.0
     Generated by new atomic code, or converted to UPF format
     Using radial grid of  859 points,  6 beta functions with: 
                l(1) =   0
                l(2) =   0
                l(3) =   1
                l(4) =   1
                l(5) =   2
                l(6) =   2
     Q(r) pseudized with  8 coefficients,  rinner =    0.950   0.950   0.950
                                                       0.950   0.950

     atomic species   valence    mass     pseudopotential
        F              7.00    18.99840     F ( 1.00)
        Hf            12.00   178.49000     Hf( 1.00)
        Mn            15.00    54.93805     Mn( 1.00)

     Starting magnetic structure 
     atomic species   magnetization
        F            0.100
        Hf           0.417
        Mn           0.333

     48 Sym. Ops., with inversion, found


                                    s                        frac. trans.

      isym =  1     identity                                     

 cryst.   s( 1) = (     1          0          0      )
                  (     0          1          0      )
                  (     0          0          1      )

 cart.    s( 1) = (  1.0000000 -0.0000000  0.0000000 )
                  ( -0.0000000  1.0000000  0.0000000 )
                  ( -0.0000000  0.0000000  1.0000000 )


      isym =  2     180 deg rotation - cart. axis [0,0,1]        

 cryst.   s( 2) = (     0          1         -1      )
                  (     1          0         -1      )
                  (     0          0         -1      )

 cart.    s( 2) = ( -1.0000000  0.0000000  0.0000000 )
                  (  0.0000000 -1.0000000  0.0000000 )
                  (  0.0000000 -0.0000000  1.0000000 )


      isym =  3     180 deg rotation - cart. axis [0,1,0]        

 cryst.   s( 3) = (     0         -1          1      )
                  (     0         -1          0      )
                  (     1         -1          0      )

 cart.    s( 3) = ( -1.0000000 -0.0000000 -0.0000000 )
                  (  0.0000000  1.0000000 -0.0000000 )
                  (  0.0000000  0.0000000 -1.0000000 )


      isym =  4     180 deg rotation - cart. axis [1,0,0]        

 cryst.   s( 4) = (    -1          0          0      )
                  (    -1          0          1      )
                  (    -1          1          0      )

 cart.    s( 4) = (  1.0000000  0.0000000 -0.0000000 )
                  ( -0.0000000 -1.0000000 -0.0000000 )
                  ( -0.0000000 -0.0000000 -1.0000000 )


      isym =  5     180 deg rotation - cart. axis [1,1,0]        

 cryst.   s( 5) = (    -1          0          1      )
                  (     0         -1          1      )
                  (     0          0          1      )

 cart.    s( 5) = ( -0.0000000  1.0000000 -0.0000000 )
                  (  1.0000000 -0.0000000 -0.0000000 )
                  (  0.0000000 -0.0000000 -1.0000000 )


      isym =  6     180 deg rotation - cart. axis [1,-1,0]       

 cryst.   s( 6) = (     0         -1          0      )
                  (    -1          0          0      )
                  (     0          0         -1      )

 cart.    s( 6) = (  0.0000000 -1.0000000 -0.0000000 )
                  ( -1.0000000  0.0000000 -0.0000000 )
                  ( -0.0000000  0.0000000 -1.0000000 )


      isym =  7      90 deg rotation - cart. axis [0,0,-1]       

 cryst.   s( 7) = (     0          1          0      )
                  (     0          1         -1      )
                  (    -1          1          0      )

 cart.    s( 7) = (  0.0000000  1.0000000  0.0000000 )
                  ( -1.0000000 -0.0000000  0.0000000 )
                  ( -0.0000000 -0.0000000  1.0000000 )


      isym =  8      90 deg rotation - cart. axis [0,0,1]        

 cryst.   s( 8) = (     1          0         -1      )
                  (     1          0          0      )
                  (     1         -1          0      )

 cart.    s( 8) = ( -0.0000000 -1.0000000  0.0000000 )
                  (  1.0000000  0.0000000  0.0000000 )
                  (  0.0000000  0.0000000  1.0000000 )


      isym =  9     180 deg rotation - cart. axis [1,0,1]        

 cryst.   s( 9) = (    -1          1          0      )
                  (     0          1          0      )
                  (     0          1         -1      )

 cart.    s( 9) = (  0.0000000  0.0000000  1.0000000 )
                  (  0.0000000 -1.0000000 -0.0000000 )
                  (  1.0000000 -0.0000000 -0.0000000 )


      isym = 10     180 deg rotation - cart. axis [-1,0,1]       

 cryst.   s(10) = (     0          0         -1      )
                  (     0         -1          0      )
                  (    -1          0          0      )

 cart.    s(10) = ( -0.0000000  0.0000000 -1.0000000 )
                  ( -0.0000000 -1.0000000  0.0000000 )
                  ( -1.0000000 -0.0000000  0.0000000 )


      isym = 11      90 deg rotation - cart. axis [0,1,0]        

 cryst.   s(11) = (     0          0          1      )
                  (    -1          0          1      )
                  (     0         -1          1      )

 cart.    s(11) = ( -0.0000000 -0.0000000  1.0000000 )
                  ( -0.0000000  1.0000000 -0.0000000 )
                  ( -1.0000000  0.0000000 -0.0000000 )


      isym = 12      90 deg rotation - cart. axis [0,-1,0]       

 cryst.   s(12) = (     1         -1          0      )
                  (     1          0         -1      )
                  (     1          0          0      )

 cart.    s(12) = (  0.0000000 -0.0000000 -1.0000000 )
                  (  0.0000000  1.0000000  0.0000000 )
                  (  1.0000000  0.0000000  0.0000000 )


      isym = 13     180 deg rotation - cart. axis [0,1,1]        

 cryst.   s(13) = (     1          0          0      )
                  (     1         -1          0      )
                  (     1          0         -1      )

 cart.    s(13) = ( -1.0000000  0.0000000 -0.0000000 )
                  (  0.0000000  0.0000000  1.0000000 )
                  (  0.0000000  1.0000000  0.0000000 )


      isym = 14     180 deg rotation - cart. axis [0,1,-1]       

 cryst.   s(14) = (    -1          0          0      )
                  (     0          0         -1      )
                  (     0         -1          0      )

 cart.    s(14) = ( -1.0000000 -0.0000000  0.0000000 )
                  (  0.0000000 -0.0000000 -1.0000000 )
                  (  0.0000000 -1.0000000 -0.0000000 )


      isym = 15      90 deg rotation - cart. axis [-1,0,0]       

 cryst.   s(15) = (     0         -1          1      )
                  (     0          0          1      )
                  (    -1          0          1      )

 cart.    s(15) = (  1.0000000 -0.0000000 -0.0000000 )
                  ( -0.0000000 -0.0000000  1.0000000 )
                  ( -0.0000000 -1.0000000  0.0000000 )


      isym = 16      90 deg rotation - cart. axis [1,0,0]        

 cryst.   s(16) = (     0          1         -1      )
                  (    -1          1          0      )
                  (     0          1          0      )

 cart.    s(16) = (  1.0000000  0.0000000  0.0000000 )
                  ( -0.0000000  0.0000000 -1.0000000 )
                  ( -0.0000000  1.0000000 -0.0000000 )


      isym = 17     120 deg rotation - cart. axis [-1,-1,-1]     

 cryst.   s(17) = (     0          0          1      )
                  (     1          0          0      )
                  (     0          1          0      )

 cart.    s(17) = (  0.0000000  1.0000000 -0.0000000 )
                  (  0.0000000 -0.0000000  1.0000000 )
                  (  1.0000000 -0.0000000  0.0000000 )


      isym = 18     120 deg rotation - cart. axis [-1,1,1]       

 cryst.   s(18) = (     1         -1          0      )
                  (     0         -1          1      )
                  (     0         -1          0      )

 cart.    s(18) = ( -0.0000000 -1.0000000 -0.0000000 )
                  ( -0.0000000  0.0000000  1.0000000 )
                  ( -1.0000000  0.0000000  0.0000000 )


      isym = 19     120 deg rotation - cart. axis [1,1,-1]       

 cryst.   s(19) = (    -1          1          0      )
                  (    -1          0          0      )
                  (    -1          0          1      )

 cart.    s(19) = ( -0.0000000  1.0000000  0.0000000 )
                  ( -0.0000000 -0.0000000 -1.0000000 )
                  ( -1.0000000 -0.0000000 -0.0000000 )


      isym = 20     120 deg rotation - cart. axis [1,-1,1]       

 cryst.   s(20) = (     0          0         -1      )
                  (     0          1         -1      )
                  (     1          0         -1      )

 cart.    s(20) = (  0.0000000 -1.0000000  0.0000000 )
                  (  0.0000000  0.0000000 -1.0000000 )
                  (  1.0000000  0.0000000 -0.0000000 )


      isym = 21     120 deg rotation - cart. axis [1,1,1]        

 cryst.   s(21) = (     0          1          0      )
                  (     0          0          1      )
                  (     1          0          0      )

 cart.    s(21) = ( -0.0000000  0.0000000  1.0000000 )
                  (  1.0000000  0.0000000 -0.0000000 )
                  (  0.0000000  1.0000000 -0.0000000 )


      isym = 22     120 deg rotation - cart. axis [-1,1,-1]      

 cryst.   s(22) = (    -1          0          1      )
                  (    -1          1          0      )
                  (    -1          0          0      )

 cart.    s(22) = (  0.0000000 -0.0000000  1.0000000 )
                  ( -1.0000000 -0.0000000 -0.0000000 )
                  ( -0.0000000 -1.0000000 -0.0000000 )


      isym = 23     120 deg rotation - cart. axis [1,-1,-1]      

 cryst.   s(23) = (     1          0         -1      )
                  (     0          0         -1      )
                  (     0          1         -1      )

 cart.    s(23) = (  0.0000000  0.0000000 -1.0000000 )
                  ( -1.0000000  0.0000000  0.0000000 )
                  ( -0.0000000  1.0000000  0.0000000 )


      isym = 24     120 deg rotation - cart. axis [-1,-1,1]      

 cryst.   s(24) = (     0         -1          0      )
                  (     1         -1          0      )
                  (     0         -1          1      )

 cart.    s(24) = ( -0.0000000 -0.0000000 -1.0000000 )
                  (  1.0000000 -0.0000000  0.0000000 )
                  (  0.0000000 -1.0000000  0.0000000 )


      isym = 25     inversion                                    

 cryst.   s(25) = (    -1          0          0      )
                  (     0         -1          0      )
                  (     0          0         -1      )

 cart.    s(25) = ( -1.0000000  0.0000000 -0.0000000 )
                  (  0.0000000 -1.0000000 -0.0000000 )
                  (  0.0000000 -0.0000000 -1.0000000 )


      isym = 26     inv. 180 deg rotation - cart. axis [0,0,1]   

 cryst.   s(26) = (     0         -1          1      )
                  (    -1          0          1      )
                  (     0          0          1      )

 cart.    s(26) = (  1.0000000 -0.0000000 -0.0000000 )
                  ( -0.0000000  1.0000000 -0.0000000 )
                  ( -0.0000000  0.0000000 -1.0000000 )


      isym = 27     inv. 180 deg rotation - cart. axis [0,1,0]   

 cryst.   s(27) = (     0          1         -1      )
                  (     0          1          0      )
                  (    -1          1          0      )

 cart.    s(27) = (  1.0000000  0.0000000  0.0000000 )
                  ( -0.0000000 -1.0000000  0.0000000 )
                  ( -0.0000000 -0.0000000  1.0000000 )


      isym = 28     inv. 180 deg rotation - cart. axis [1,0,0]   

 cryst.   s(28) = (     1          0          0      )
                  (     1          0         -1      )
                  (     1         -1          0      )

 cart.    s(28) = ( -1.0000000 -0.0000000  0.0000000 )
                  (  0.0000000  1.0000000  0.0000000 )
                  (  0.0000000  0.0000000  1.0000000 )


      isym = 29     inv. 180 deg rotation - cart. axis [1,1,0]   

 cryst.   s(29) = (     1          0         -1      )
                  (     0          1         -1      )
                  (     0          0         -1      )

 cart.    s(29) = (  0.0000000 -1.0000000  0.0000000 )
                  ( -1.0000000  0.0000000  0.0000000 )
                  ( -0.0000000  0.0000000  1.0000000 )


      isym = 30     inv. 180 deg rotation - cart. axis [1,-1,0]  

 cryst.   s(30) = (     0          1          0      )
                  (     1          0          0      )
                  (     0          0          1      )

 cart.    s(30) = ( -0.0000000  1.0000000  0.0000000 )
                  (  1.0000000 -0.0000000  0.0000000 )
                  (  0.0000000 -0.0000000  1.0000000 )


      isym = 31     inv.  90 deg rotation - cart. axis [0,0,-1]  

 cryst.   s(31) = (     0         -1          0      )
                  (     0         -1          1      )
                  (     1         -1          0      )

 cart.    s(31) = ( -0.0000000 -1.0000000 -0.0000000 )
                  (  1.0000000  0.0000000 -0.0000000 )
                  (  0.0000000  0.0000000 -1.0000000 )


      isym = 32     inv.  90 deg rotation - cart. axis [0,0,1]   

 cryst.   s(32) = (    -1          0          1      )
                  (    -1          0          0      )
                  (    -1          1          0      )

 cart.    s(32) = (  0.0000000  1.0000000 -0.0000000 )
                  ( -1.0000000 -0.0000000 -0.0000000 )
                  ( -0.0000000 -0.0000000 -1.0000000 )


      isym = 33     inv. 180 deg rotation - cart. axis [1,0,1]   

 cryst.   s(33) = (     1         -1          0      )
                  (     0         -1          0      )
                  (     0         -1          1      )

 cart.    s(33) = ( -0.0000000 -0.0000000 -1.0000000 )
                  ( -0.0000000  1.0000000  0.0000000 )
                  ( -1.0000000  0.0000000  0.0000000 )


      isym = 34     inv. 180 deg rotation - cart. axis [-1,0,1]  

 cryst.   s(34) = (     0          0          1      )
                  (     0          1          0      )
                  (     1          0          0      )

 cart.    s(34) = (  0.0000000 -0.0000000  1.0000000 )
                  (  0.0000000  1.0000000 -0.0000000 )
                  (  1.0000000  0.0000000 -0.0000000 )


      isym = 35     inv.  90 deg rotation - cart. axis [0,1,0]   

 cryst.   s(35) = (     0          0         -1      )
                  (     1          0         -1      )
                  (     0          1         -1      )

 cart.    s(35) = (  0.0000000  0.0000000 -1.0000000 )
                  (  0.0000000 -1.0000000  0.0000000 )
                  (  1.0000000 -0.0000000  0.0000000 )


      isym = 36     inv.  90 deg rotation - cart. axis [0,-1,0]  

 cryst.   s(36) = (    -1          1          0      )
                  (    -1          0          1      )
                  (    -1          0          0      )

 cart.    s(36) = ( -0.0000000  0.0000000  1.0000000 )
                  ( -0.0000000 -1.0000000 -0.0000000 )
                  ( -1.0000000 -0.0000000 -0.0000000 )


      isym = 37     inv. 180 deg rotation - cart. axis [0,1,1]   

 cryst.   s(37) = (    -1          0          0      )
                  (    -1          1          0      )
                  (    -1          0          1      )

 cart.    s(37) = (  1.0000000 -0.0000000  0.0000000 )
                  ( -0.0000000 -0.0000000 -1.0000000 )
                  ( -0.0000000 -1.0000000 -0.0000000 )


      isym = 38     inv. 180 deg rotation - cart. axis [0,1,-1]  

 cryst.   s(38) = (     1          0          0      )
                  (     0          0          1      )
                  (     0          1          0      )

 cart.    s(38) = (  1.0000000  0.0000000 -0.0000000 )
                  ( -0.0000000  0.0000000  1.0000000 )
                  ( -0.0000000  1.0000000  0.0000000 )


      isym = 39     inv.  90 deg rotation - cart. axis [-1,0,0]  

 cryst.   s(39) = (     0          1         -1      )
                  (     0          0         -1      )
                  (     1          0         -1      )

 cart.    s(39) = ( -1.0000000  0.0000000  0.0000000 )
                  (  0.0000000  0.0000000 -1.0000000 )
                  (  0.0000000  1.0000000 -0.0000000 )


      isym = 40     inv.  90 deg rotation - cart. axis [1,0,0]   

 cryst.   s(40) = (     0         -1          1      )
                  (     1         -1          0      )
                  (     0         -1          0      )

 cart.    s(40) = ( -1.0000000 -0.0000000 -0.0000000 )
                  (  0.0000000 -0.0000000  1.0000000 )
                  (  0.0000000 -1.0000000  0.0000000 )


      isym = 41     inv. 120 deg rotation - cart. axis [-1,-1,-1]

 cryst.   s(41) = (     0          0         -1      )
                  (    -1          0          0      )
                  (     0         -1          0      )

 cart.    s(41) = ( -0.0000000 -1.0000000  0.0000000 )
                  ( -0.0000000  0.0000000 -1.0000000 )
                  ( -1.0000000  0.0000000 -0.0000000 )


      isym = 42     inv. 120 deg rotation - cart. axis [-1,1,1]  

 cryst.   s(42) = (    -1          1          0      )
                  (     0          1         -1      )
                  (     0          1          0      )

 cart.    s(42) = (  0.0000000  1.0000000  0.0000000 )
                  (  0.0000000 -0.0000000 -1.0000000 )
                  (  1.0000000 -0.0000000 -0.0000000 )


      isym = 43     inv. 120 deg rotation - cart. axis [1,1,-1]  

 cryst.   s(43) = (     1         -1          0      )
                  (     1          0          0      )
                  (     1          0         -1      )

 cart.    s(43) = (  0.0000000 -1.0000000 -0.0000000 )
                  (  0.0000000  0.0000000  1.0000000 )
                  (  1.0000000  0.0000000  0.0000000 )


      isym = 44     inv. 120 deg rotation - cart. axis [1,-1,1]  

 cryst.   s(44) = (     0          0          1      )
                  (     0         -1          1      )
                  (    -1          0          1      )

 cart.    s(44) = ( -0.0000000  1.0000000 -0.0000000 )
                  ( -0.0000000 -0.0000000  1.0000000 )
                  ( -1.0000000 -0.0000000  0.0000000 )


      isym = 45     inv. 120 deg rotation - cart. axis [1,1,1]   

 cryst.   s(45) = (     0         -1          0      )
                  (     0          0         -1      )
                  (    -1          0          0      )

 cart.    s(45) = (  0.0000000 -0.0000000 -1.0000000 )
                  ( -1.0000000 -0.0000000  0.0000000 )
                  ( -0.0000000 -1.0000000  0.0000000 )


      isym = 46     inv. 120 deg rotation - cart. axis [-1,1,-1] 

 cryst.   s(46) = (     1          0         -1      )
                  (     1         -1          0      )
                  (     1          0          0      )

 cart.    s(46) = ( -0.0000000  0.0000000 -1.0000000 )
                  (  1.0000000  0.0000000  0.0000000 )
                  (  0.0000000  1.0000000  0.0000000 )


      isym = 47     inv. 120 deg rotation - cart. axis [1,-1,-1] 

 cryst.   s(47) = (    -1          0          1      )
                  (     0          0          1      )
                  (     0         -1          1      )

 cart.    s(47) = ( -0.0000000 -0.0000000  1.0000000 )
                  (  1.0000000 -0.0000000 -0.0000000 )
                  (  0.0000000 -1.0000000 -0.0000000 )


      isym = 48     inv. 120 deg rotation - cart. axis [-1,-1,1] 

 cryst.   s(48) = (     0          1          0      )
                  (    -1          1          0      )
                  (     0          1         -1      )

 cart.    s(48) = (  0.0000000  0.0000000  1.0000000 )
                  ( -1.0000000  0.0000000 -0.0000000 )
                  ( -0.0000000  1.0000000 -0.0000000 )


   Cartesian axes

     site n.     atom                  positions (alat units)
         1           Hf  tau(   1) = (   0.7071068   0.0000000   0.0000000  )
         2           Mn  tau(   2) = (   0.0000000   0.0000000   0.0000000  )
         3           F   tau(   3) = (   1.1073292   0.0000000   0.0000000  )
         4           F   tau(   4) = (   0.7071068   0.4002224  -0.0000000  )
         5           F   tau(   5) = (  -0.0000000  -0.0000000   1.1073292  )
         6           F   tau(   6) = (   0.7071068   0.0000000   1.0139911  )
         7           F   tau(   7) = (   0.7071068   1.0139911   0.0000000  )
         8           F   tau(   8) = (   0.3068843  -0.0000000  -0.0000000  )

   Crystallographic axes

     site n.     atom                  positions (cryst. coord.)
         1           Hf  tau(   1) = ( -0.5000000  0.5000000  0.5000000  )
         2           Mn  tau(   2) = (  0.0000000  0.0000000  0.0000000  )
         3           F   tau(   3) = ( -0.7830000  0.7830000  0.7830000  )
         4           F   tau(   4) = ( -0.2170000  0.2170000  0.7830000  )
         5           F   tau(   5) = (  0.7830000  0.7830000 -0.7830000  )
         6           F   tau(   6) = (  0.2170000  1.2170000 -0.2170000  )
         7           F   tau(   7) = (  0.2170000 -0.2170000  1.2170000  )
         8           F   tau(   8) = ( -0.2170000  0.2170000  0.2170000  )

     number of k points=    35  Marzari-Vanderbilt smearing, width (Ry)=  0.0100
                       cart. coord. in units 2pi/alat
        k(    1) = (   0.0000000   0.0000000   0.0000000), wk =   0.0013717
        k(    2) = (   0.0785674   0.0785674  -0.0785674), wk =   0.0109739
        k(    3) = (   0.1571348   0.1571348  -0.1571348), wk =   0.0109739
        k(    4) = (   0.2357023   0.2357023  -0.2357023), wk =   0.0109739
        k(    5) = (   0.3142697   0.3142697  -0.3142697), wk =   0.0109739
        k(    6) = (   0.1571348   0.0000000  -0.0000000), wk =   0.0082305
        k(    7) = (   0.2357023   0.0785674  -0.0785674), wk =   0.0329218
        k(    8) = (   0.3142697   0.1571348  -0.1571348), wk =   0.0329218
        k(    9) = (   0.3928371   0.2357023  -0.2357023), wk =   0.0329218
        k(   10) = (  -0.2357023  -0.3928371   0.3928371), wk =   0.0329218
        k(   11) = (  -0.1571348  -0.3142697   0.3142697), wk =   0.0329218
        k(   12) = (  -0.0785674  -0.2357023   0.2357023), wk =   0.0329218
        k(   13) = (  -0.0000000  -0.1571348   0.1571348), wk =   0.0164609
        k(   14) = (   0.3142697   0.0000000  -0.0000000), wk =   0.0082305
        k(   15) = (   0.3928371   0.0785674  -0.0785674), wk =   0.0329218
        k(   16) = (   0.4714045   0.1571348  -0.1571348), wk =   0.0329218
        k(   17) = (  -0.1571348  -0.4714045   0.4714045), wk =   0.0329218
        k(   18) = (  -0.0785674  -0.3928371   0.3928371), wk =   0.0329218
        k(   19) = (  -0.0000000  -0.3142697   0.3142697), wk =   0.0164609
        k(   20) = (   0.4714045   0.0000000  -0.0000000), wk =   0.0082305
        k(   21) = (   0.5499719   0.0785674  -0.0785674), wk =   0.0329218
        k(   22) = (  -0.0785674  -0.5499719   0.5499719), wk =   0.0329218
        k(   23) = (  -0.0000000  -0.4714045   0.4714045), wk =   0.0164609
        k(   24) = (   0.6285394   0.0000000  -0.0000000), wk =   0.0082305
        k(   25) = (  -0.0000000  -0.6285394   0.6285394), wk =   0.0164609
        k(   26) = (   0.3142697   0.1571348  -0.0000000), wk =   0.0329218
        k(   27) = (   0.3928371   0.2357023  -0.0785674), wk =   0.0658436
        k(   28) = (  -0.2357023  -0.3928371   0.5499719), wk =   0.0658436
        k(   29) = (   0.4714045   0.1571348  -0.0000000), wk =   0.0329218
        k(   30) = (  -0.1571348  -0.4714045   0.6285394), wk =   0.0658436
        k(   31) = (  -0.0785674  -0.3928371   0.5499719), wk =   0.0658436
        k(   32) = (   0.0000000  -0.3142697   0.4714045), wk =   0.0329218
        k(   33) = (  -0.0785674  -0.5499719   0.7071068), wk =   0.0329218
        k(   34) = (  -0.0000000  -0.4714045   0.6285394), wk =   0.0329218
        k(   35) = (  -0.0785674  -0.3928371   0.7071068), wk =   0.0329218

                       cryst. coord.
        k(    1) = (   0.0000000   0.0000000   0.0000000), wk =   0.0013717
        k(    2) = (  -0.0000000  -0.0000000   0.1111111), wk =   0.0109739
        k(    3) = (  -0.0000000  -0.0000000   0.2222222), wk =   0.0109739
        k(    4) = (   0.0000000   0.0000000   0.3333333), wk =   0.0109739
        k(    5) = (  -0.0000000  -0.0000000   0.4444444), wk =   0.0109739
        k(    6) = (  -0.0000000   0.1111111   0.1111111), wk =   0.0082305
        k(    7) = (   0.0000000   0.1111111   0.2222222), wk =   0.0329218
        k(    8) = (   0.0000000   0.1111111   0.3333333), wk =   0.0329218
        k(    9) = (   0.0000000   0.1111111   0.4444444), wk =   0.0329218
        k(   10) = (  -0.0000000   0.1111111  -0.4444444), wk =   0.0329218
        k(   11) = (  -0.0000000   0.1111111  -0.3333333), wk =   0.0329218
        k(   12) = (  -0.0000000   0.1111111  -0.2222222), wk =   0.0329218
        k(   13) = (   0.0000000   0.1111111  -0.1111111), wk =   0.0164609
        k(   14) = (  -0.0000000   0.2222222   0.2222222), wk =   0.0082305
        k(   15) = (   0.0000000   0.2222222   0.3333333), wk =   0.0329218
        k(   16) = (   0.0000000   0.2222222   0.4444444), wk =   0.0329218
        k(   17) = (  -0.0000000   0.2222222  -0.4444444), wk =   0.0329218
        k(   18) = (  -0.0000000   0.2222222  -0.3333333), wk =   0.0329218
        k(   19) = (   0.0000000   0.2222222  -0.2222222), wk =   0.0164609
        k(   20) = (  -0.0000000   0.3333333   0.3333333), wk =   0.0082305
        k(   21) = (   0.0000000   0.3333333   0.4444444), wk =   0.0329218
        k(   22) = (  -0.0000000   0.3333333  -0.4444444), wk =   0.0329218
        k(   23) = (   0.0000000   0.3333333  -0.3333333), wk =   0.0164609
        k(   24) = (  -0.0000000   0.4444444   0.4444444), wk =   0.0082305
        k(   25) = (   0.0000000   0.4444444  -0.4444444), wk =   0.0164609
        k(   26) = (   0.1111111   0.2222222   0.3333333), wk =   0.0329218
        k(   27) = (   0.1111111   0.2222222   0.4444444), wk =   0.0658436
        k(   28) = (   0.1111111   0.2222222  -0.4444444), wk =   0.0658436
        k(   29) = (   0.1111111   0.3333333   0.4444444), wk =   0.0329218
        k(   30) = (   0.1111111   0.3333333  -0.4444444), wk =   0.0658436
        k(   31) = (   0.1111111   0.3333333  -0.3333333), wk =   0.0658436
        k(   32) = (   0.1111111   0.3333333  -0.2222222), wk =   0.0329218
        k(   33) = (   0.1111111   0.4444444  -0.4444444), wk =   0.0329218
        k(   34) = (   0.1111111   0.4444444  -0.3333333), wk =   0.0329218
        k(   35) = (   0.2222222   0.4444444  -0.3333333), wk =   0.0329218

     Dense  grid:   337381 G-vectors     FFT dimensions: ( 100, 100, 100)

     Smooth grid:    64767 G-vectors     FFT dimensions: (  60,  60,  60)

     Dynamical RAM for                 wfc:       5.20 MB

     Dynamical RAM for     wfc (w. buffer):     369.11 MB

     Dynamical RAM for           str. fact:      15.44 MB

     Dynamical RAM for           local pot:       0.00 MB

     Dynamical RAM for          nlocal pot:      12.13 MB

     Dynamical RAM for                qrad:      16.13 MB

     Dynamical RAM for          rho,v,vnew:      76.66 MB

     Dynamical RAM for               rhoin:      25.55 MB

     Dynamical RAM for            rho*nmix:     164.74 MB

     Dynamical RAM for           G-vectors:      19.80 MB

     Dynamical RAM for          h,s,v(r/c):       0.32 MB

     Dynamical RAM for          <psi|beta>:       0.06 MB

     Dynamical RAM for                 psi:      10.40 MB

     Dynamical RAM for                hpsi:      10.40 MB

     Dynamical RAM for                spsi:      10.40 MB

     Dynamical RAM for      wfcinit/wfcrot:      11.69 MB

     Dynamical RAM for           addusdens:    1055.35 MB

     Dynamical RAM for          addusforce:    1106.87 MB

     Dynamical RAM for         addusstress:    1166.03 MB

     Estimated static dynamical RAM per process >     601.20 MB

     Estimated max dynamical RAM per process >       1.89 GB

     Check: negative core charge=   -0.000005
     Generating pointlists ...
     new r_m :   0.1266 (alat units)  1.3803 (a.u.) for type    1
     new r_m :   0.1651 (alat units)  1.8001 (a.u.) for type    2
     new r_m :   0.1266 (alat units)  1.3803 (a.u.) for type    3

     Initial potential from superposition of free atoms

     starting charge      68.4982, renormalised to      69.0000
     Starting wfcs are   47 randomized atomic wfcs

     total cpu time spent up to now is        5.0 secs

     per-process dynamical memory:  1243.1 Mb

     Self-consistent Calculation
[tb_dev] Currently allocated     1.74E+01 Mbytes, locked:    0 /  16
[tb_pin] Currently allocated     0.00E+00 Mbytes, locked:    0 /   0

     iteration #  1     ecut=    65.00 Ry     beta= 0.40
     Davidson diagonalization with overlap

---- Real-time Memory Report at c_bands before calling an iterative solver
          1424 MiB given to the printing process from OS
          1238 MiB allocation reported by mallinfo(arena+hblkhd)
         45368 MiB available memory on the node where the printing process lives
     GPU memory used/free/total (MiB): 1356 / 14924 / 16280
------------------
     ethr =  1.00E-02,  avg # of iterations =  2.2

     total cpu time spent up to now is        8.0 secs

     total energy              =    -614.73142962 Ry
     estimated scf accuracy    <       1.98376101 Ry

     total magnetization       =     5.00 Bohr mag/cell
     absolute magnetization    =     5.11 Bohr mag/cell
[tb_dev] Currently allocated     1.74E+01 Mbytes, locked:    0 /  14
[tb_pin] Currently allocated     0.00E+00 Mbytes, locked:    0 /   0

     iteration #  2     ecut=    65.00 Ry     beta= 0.40
     Davidson diagonalization with overlap

---- Real-time Memory Report at c_bands before calling an iterative solver
          1504 MiB given to the printing process from OS
          1296 MiB allocation reported by mallinfo(arena+hblkhd)
         45332 MiB available memory on the node where the printing process lives
     GPU memory used/free/total (MiB): 2720 / 13560 / 16280
------------------
     ethr =  2.88E-03,  avg # of iterations =  5.4

     total cpu time spent up to now is       12.6 secs

     total energy              =    -613.73606344 Ry
     estimated scf accuracy    <      14.98370797 Ry

     total magnetization       =     2.23 Bohr mag/cell
     absolute magnetization    =     2.48 Bohr mag/cell
[tb_dev] Currently allocated     1.74E+01 Mbytes, locked:    0 /  14
[tb_pin] Currently allocated     0.00E+00 Mbytes, locked:    0 /   0

     iteration #  3     ecut=    65.00 Ry     beta= 0.40
     Davidson diagonalization with overlap

---- Real-time Memory Report at c_bands before calling an iterative solver
          1511 MiB given to the printing process from OS
          1302 MiB allocation reported by mallinfo(arena+hblkhd)
         45329 MiB available memory on the node where the printing process lives
     GPU memory used/free/total (MiB): 2758 / 13522 / 16280
------------------
     ethr =  2.88E-03,  avg # of iterations =  4.6

     total cpu time spent up to now is       16.4 secs

     WARNING: integrated charge=    69.00028014, expected=    69.00000000

     total energy              =    -615.36288515 Ry
     estimated scf accuracy    <       1.03106214 Ry

     total magnetization       =     5.00 Bohr mag/cell
     absolute magnetization    =     5.06 Bohr mag/cell
[tb_dev] Currently allocated     1.74E+01 Mbytes, locked:    0 /  14
[tb_pin] Currently allocated     0.00E+00 Mbytes, locked:    0 /   0

     iteration #  4     ecut=    65.00 Ry     beta= 0.40
     Davidson diagonalization with overlap

---- Real-time Memory Report at c_bands before calling an iterative solver
          1515 MiB given to the printing process from OS
          1306 MiB allocation reported by mallinfo(arena+hblkhd)
         45326 MiB available memory on the node where the printing process lives
     GPU memory used/free/total (MiB): 2758 / 13522 / 16280
------------------
     ethr =  1.49E-03,  avg # of iterations =  1.2
     Minimization algorithm failed to find Fermi energy: reverting to bisection
     Possible cause: smearing is larger than the electronic band-gap.

     negative rho (up, down):  0.000E+00 5.470E-05

     total cpu time spent up to now is       19.2 secs

     WARNING: integrated charge=    68.99995908, expected=    69.00000000

     total energy              =    -615.30618573 Ry
     estimated scf accuracy    <       0.50335695 Ry

     total magnetization       =     5.00 Bohr mag/cell
     absolute magnetization    =     5.05 Bohr mag/cell
[tb_dev] Currently allocated     1.74E+01 Mbytes, locked:    0 /  14
[tb_pin] Currently allocated     0.00E+00 Mbytes, locked:    0 /   0

     iteration #  5     ecut=    65.00 Ry     beta= 0.40
     Davidson diagonalization with overlap

---- Real-time Memory Report at c_bands before calling an iterative solver
          1519 MiB given to the printing process from OS
          1310 MiB allocation reported by mallinfo(arena+hblkhd)
         45323 MiB available memory on the node where the printing process lives
     GPU memory used/free/total (MiB): 2758 / 13522 / 16280
------------------
     ethr =  7.30E-04,  avg # of iterations =  3.8

     negative rho (up, down):  0.000E+00 5.486E-05

     total cpu time spent up to now is       22.7 secs

     WARNING: integrated charge=    68.99997410, expected=    69.00000000

     total energy              =    -615.40314682 Ry
     estimated scf accuracy    <       1.10360668 Ry

     total magnetization       =     4.40 Bohr mag/cell
     absolute magnetization    =     4.51 Bohr mag/cell
[tb_dev] Currently allocated     1.74E+01 Mbytes, locked:    0 /  14
[tb_pin] Currently allocated     0.00E+00 Mbytes, locked:    0 /   0

     iteration #  6     ecut=    65.00 Ry     beta= 0.40
     Davidson diagonalization with overlap

---- Real-time Memory Report at c_bands before calling an iterative solver
          1523 MiB given to the printing process from OS
          1314 MiB allocation reported by mallinfo(arena+hblkhd)
         45320 MiB available memory on the node where the printing process lives
     GPU memory used/free/total (MiB): 2758 / 13522 / 16280
------------------
     ethr =  7.30E-04,  avg # of iterations =  1.5

     negative rho (up, down):  0.000E+00 5.818E-05

     total cpu time spent up to now is       25.5 secs

     total energy              =    -615.37242990 Ry
     estimated scf accuracy    <       0.63504336 Ry

     total magnetization       =     4.54 Bohr mag/cell
     absolute magnetization    =     4.64 Bohr mag/cell
[tb_dev] Currently allocated     1.74E+01 Mbytes, locked:    0 /  14
[tb_pin] Currently allocated     0.00E+00 Mbytes, locked:    0 /   0

     iteration #  7     ecut=    65.00 Ry     beta= 0.40
     Davidson diagonalization with overlap

---- Real-time Memory Report at c_bands before calling an iterative solver
          1527 MiB given to the printing process from OS
          1318 MiB allocation reported by mallinfo(arena+hblkhd)
         45314 MiB available memory on the node where the printing process lives
     GPU memory used/free/total (MiB): 2758 / 13522 / 16280
------------------
     ethr =  7.30E-04,  avg # of iterations =  1.2

     negative rho (up, down):  0.000E+00 6.646E-05

     total cpu time spent up to now is       28.4 secs

     WARNING: integrated charge=    69.00001533, expected=    69.00000000

     total energy              =    -615.38110384 Ry
     estimated scf accuracy    <       0.05698490 Ry

     total magnetization       =     4.79 Bohr mag/cell
     absolute magnetization    =     4.86 Bohr mag/cell
[tb_dev] Currently allocated     1.74E+01 Mbytes, locked:    0 /  14
[tb_pin] Currently allocated     0.00E+00 Mbytes, locked:    0 /   0

     iteration #  8     ecut=    65.00 Ry     beta= 0.40
     Davidson diagonalization with overlap

---- Real-time Memory Report at c_bands before calling an iterative solver
          1529 MiB given to the printing process from OS
          1320 MiB allocation reported by mallinfo(arena+hblkhd)
         45308 MiB available memory on the node where the printing process lives
     GPU memory used/free/total (MiB): 2758 / 13522 / 16280
------------------
     ethr =  8.26E-05,  avg # of iterations =  4.5

     negative rho (up, down):  0.000E+00 6.577E-05

     total cpu time spent up to now is       32.0 secs

     total energy              =    -615.38472583 Ry
     estimated scf accuracy    <       0.00097530 Ry

     total magnetization       =     4.80 Bohr mag/cell
     absolute magnetization    =     4.86 Bohr mag/cell
[tb_dev] Currently allocated     1.74E+01 Mbytes, locked:    0 /  14
[tb_pin] Currently allocated     0.00E+00 Mbytes, locked:    0 /   0

     iteration #  9     ecut=    65.00 Ry     beta= 0.40
     Davidson diagonalization with overlap

---- Real-time Memory Report at c_bands before calling an iterative solver
          1537 MiB given to the printing process from OS
          1328 MiB allocation reported by mallinfo(arena+hblkhd)
         45300 MiB available memory on the node where the printing process lives
     GPU memory used/free/total (MiB): 2758 / 13522 / 16280
------------------
     ethr =  1.41E-06,  avg # of iterations =  5.9

     negative rho (up, down):  0.000E+00 6.434E-05

     total cpu time spent up to now is       36.4 secs

     total energy              =    -615.38495014 Ry
     estimated scf accuracy    <       0.00167803 Ry

     total magnetization       =     4.78 Bohr mag/cell
     absolute magnetization    =     4.84 Bohr mag/cell
[tb_dev] Currently allocated     1.74E+01 Mbytes, locked:    0 /  14
[tb_pin] Currently allocated     0.00E+00 Mbytes, locked:    0 /   0

     iteration # 10     ecut=    65.00 Ry     beta= 0.40
     Davidson diagonalization with overlap

---- Real-time Memory Report at c_bands before calling an iterative solver
          1543 MiB given to the printing process from OS
          1330 MiB allocation reported by mallinfo(arena+hblkhd)
         45300 MiB available memory on the node where the printing process lives
     GPU memory used/free/total (MiB): 2836 / 13444 / 16280
------------------
     ethr =  1.41E-06,  avg # of iterations =  1.0

     negative rho (up, down):  0.000E+00 6.332E-05

     total cpu time spent up to now is       39.1 secs

     total energy              =    -615.38498663 Ry
     estimated scf accuracy    <       0.00026647 Ry

     total magnetization       =     4.76 Bohr mag/cell
     absolute magnetization    =     4.81 Bohr mag/cell
[tb_dev] Currently allocated     1.74E+01 Mbytes, locked:    0 /  14
[tb_pin] Currently allocated     0.00E+00 Mbytes, locked:    0 /   0

     iteration # 11     ecut=    65.00 Ry     beta= 0.40
     Davidson diagonalization with overlap

---- Real-time Memory Report at c_bands before calling an iterative solver
          1545 MiB given to the printing process from OS
          1330 MiB allocation reported by mallinfo(arena+hblkhd)
         45301 MiB available memory on the node where the printing process lives
     GPU memory used/free/total (MiB): 2836 / 13444 / 16280
------------------
     ethr =  3.86E-07,  avg # of iterations =  1.7

     negative rho (up, down):  0.000E+00 6.443E-05

     total cpu time spent up to now is       42.1 secs

     total energy              =    -615.38491109 Ry
     estimated scf accuracy    <       0.00002351 Ry

     total magnetization       =     4.71 Bohr mag/cell
     absolute magnetization    =     4.77 Bohr mag/cell
[tb_dev] Currently allocated     1.74E+01 Mbytes, locked:    0 /  14
[tb_pin] Currently allocated     0.00E+00 Mbytes, locked:    0 /   0

     iteration # 12     ecut=    65.00 Ry     beta= 0.40
     Davidson diagonalization with overlap

---- Real-time Memory Report at c_bands before calling an iterative solver
          1545 MiB given to the printing process from OS
          1330 MiB allocation reported by mallinfo(arena+hblkhd)
         45302 MiB available memory on the node where the printing process lives
     GPU memory used/free/total (MiB): 2836 / 13444 / 16280
------------------
     ethr =  3.41E-08,  avg # of iterations =  3.7

     negative rho (up, down):  0.000E+00 6.537E-05

     total cpu time spent up to now is       45.8 secs

     total energy              =    -615.38488440 Ry
     estimated scf accuracy    <       0.00002689 Ry

     total magnetization       =     4.78 Bohr mag/cell
     absolute magnetization    =     4.84 Bohr mag/cell
[tb_dev] Currently allocated     1.74E+01 Mbytes, locked:    0 /  14
[tb_pin] Currently allocated     0.00E+00 Mbytes, locked:    0 /   0

     iteration # 13     ecut=    65.00 Ry     beta= 0.40
     Davidson diagonalization with overlap

---- Real-time Memory Report at c_bands before calling an iterative solver
          1545 MiB given to the printing process from OS
          1330 MiB allocation reported by mallinfo(arena+hblkhd)
         45301 MiB available memory on the node where the printing process lives
     GPU memory used/free/total (MiB): 2928 / 13352 / 16280
------------------
     ethr =  3.41E-08,  avg # of iterations =  2.9

     negative rho (up, down):  0.000E+00 6.847E-05

     total cpu time spent up to now is       49.3 secs

     total energy              =    -615.38460510 Ry
     estimated scf accuracy    <       0.00004061 Ry

     total magnetization       =     4.84 Bohr mag/cell
     absolute magnetization    =     4.90 Bohr mag/cell
[tb_dev] Currently allocated     1.74E+01 Mbytes, locked:    0 /  14
[tb_pin] Currently allocated     0.00E+00 Mbytes, locked:    0 /   0

     iteration # 14     ecut=    65.00 Ry     beta= 0.40
     Davidson diagonalization with overlap

---- Real-time Memory Report at c_bands before calling an iterative solver
          1545 MiB given to the printing process from OS
          1330 MiB allocation reported by mallinfo(arena+hblkhd)
         45302 MiB available memory on the node where the printing process lives
     GPU memory used/free/total (MiB): 2928 / 13352 / 16280
------------------
     ethr =  3.41E-08,  avg # of iterations =  5.1

     negative rho (up, down):  0.000E+00 6.748E-05

     total cpu time spent up to now is       53.9 secs

     total energy              =    -615.38483212 Ry
     estimated scf accuracy    <       0.00002129 Ry

     total magnetization       =     4.95 Bohr mag/cell
     absolute magnetization    =     5.00 Bohr mag/cell
[tb_dev] Currently allocated     1.74E+01 Mbytes, locked:    0 /  14
[tb_pin] Currently allocated     0.00E+00 Mbytes, locked:    0 /   0

     iteration # 15     ecut=    65.00 Ry     beta= 0.40
     Davidson diagonalization with overlap

---- Real-time Memory Report at c_bands before calling an iterative solver
          1545 MiB given to the printing process from OS
          1330 MiB allocation reported by mallinfo(arena+hblkhd)
         45302 MiB available memory on the node where the printing process lives
     GPU memory used/free/total (MiB): 2928 / 13352 / 16280
------------------
     ethr =  3.09E-08,  avg # of iterations =  3.0

     negative rho (up, down):  0.000E+00 6.499E-05

     total cpu time spent up to now is       57.4 secs

     total energy              =    -615.38483206 Ry
     estimated scf accuracy    <       0.00000868 Ry

     total magnetization       =     4.92 Bohr mag/cell
     absolute magnetization    =     4.98 Bohr mag/cell
[tb_dev] Currently allocated     1.74E+01 Mbytes, locked:    0 /  14
[tb_pin] Currently allocated     0.00E+00 Mbytes, locked:    0 /   0

     iteration # 16     ecut=    65.00 Ry     beta= 0.40
     Davidson diagonalization with overlap

---- Real-time Memory Report at c_bands before calling an iterative solver
          1545 MiB given to the printing process from OS
          1330 MiB allocation reported by mallinfo(arena+hblkhd)
         45301 MiB available memory on the node where the printing process lives
     GPU memory used/free/total (MiB): 2928 / 13352 / 16280
------------------
     ethr =  1.26E-08,  avg # of iterations =  4.9

     negative rho (up, down):  0.000E+00 6.436E-05

     total cpu time spent up to now is       61.9 secs

     total energy              =    -615.38492536 Ry
     estimated scf accuracy    <       0.00000747 Ry

     total magnetization       =     4.84 Bohr mag/cell
     absolute magnetization    =     4.89 Bohr mag/cell
[tb_dev] Currently allocated     1.74E+01 Mbytes, locked:    0 /  14
[tb_pin] Currently allocated     0.00E+00 Mbytes, locked:    0 /   0

     iteration # 17     ecut=    65.00 Ry     beta= 0.40
     Davidson diagonalization with overlap

---- Real-time Memory Report at c_bands before calling an iterative solver
          1545 MiB given to the printing process from OS
          1330 MiB allocation reported by mallinfo(arena+hblkhd)
         45302 MiB available memory on the node where the printing process lives
     GPU memory used/free/total (MiB): 2928 / 13352 / 16280
------------------
     ethr =  1.08E-08,  avg # of iterations =  2.9

     negative rho (up, down):  0.000E+00 6.346E-05

     total cpu time spent up to now is       65.4 secs

     total energy              =    -615.38494670 Ry
     estimated scf accuracy    <       0.00000776 Ry

     total magnetization       =     4.81 Bohr mag/cell
     absolute magnetization    =     4.87 Bohr mag/cell
[tb_dev] Currently allocated     1.74E+01 Mbytes, locked:    0 /  14
[tb_pin] Currently allocated     0.00E+00 Mbytes, locked:    0 /   0

     iteration # 18     ecut=    65.00 Ry     beta= 0.40
     Davidson diagonalization with overlap

---- Real-time Memory Report at c_bands before calling an iterative solver
          1545 MiB given to the printing process from OS
          1330 MiB allocation reported by mallinfo(arena+hblkhd)
         45302 MiB available memory on the node where the printing process lives
     GPU memory used/free/total (MiB): 2928 / 13352 / 16280
------------------
     ethr =  1.08E-08,  avg # of iterations =  3.6

     negative rho (up, down):  0.000E+00 6.737E-05

     total cpu time spent up to now is       69.1 secs

     total energy              =    -615.38457794 Ry
     estimated scf accuracy    <       0.00001307 Ry

     total magnetization       =     4.77 Bohr mag/cell
     absolute magnetization    =     4.82 Bohr mag/cell
[tb_dev] Currently allocated     1.74E+01 Mbytes, locked:    0 /  14
[tb_pin] Currently allocated     0.00E+00 Mbytes, locked:    0 /   0

     iteration # 19     ecut=    65.00 Ry     beta= 0.40
     Davidson diagonalization with overlap

---- Real-time Memory Report at c_bands before calling an iterative solver
          1545 MiB given to the printing process from OS
          1330 MiB allocation reported by mallinfo(arena+hblkhd)
         45302 MiB available memory on the node where the printing process lives
     GPU memory used/free/total (MiB): 2928 / 13352 / 16280
------------------
     ethr =  1.08E-08,  avg # of iterations =  5.5

     negative rho (up, down):  0.000E+00 6.828E-05

     total cpu time spent up to now is       74.0 secs

     total energy              =    -615.38481131 Ry
     estimated scf accuracy    <       0.00000888 Ry

     total magnetization       =     4.92 Bohr mag/cell
     absolute magnetization    =     4.97 Bohr mag/cell
[tb_dev] Currently allocated     1.74E+01 Mbytes, locked:    0 /  14
[tb_pin] Currently allocated     0.00E+00 Mbytes, locked:    0 /   0

     iteration # 20     ecut=    65.00 Ry     beta= 0.40
     Davidson diagonalization with overlap

---- Real-time Memory Report at c_bands before calling an iterative solver
          1545 MiB given to the printing process from OS
          1330 MiB allocation reported by mallinfo(arena+hblkhd)
         45303 MiB available memory on the node where the printing process lives
     GPU memory used/free/total (MiB): 2928 / 13352 / 16280
------------------
     ethr =  1.08E-08,  avg # of iterations =  3.3

     negative rho (up, down):  0.000E+00 6.515E-05

     total cpu time spent up to now is       77.7 secs

     total energy              =    -615.38480063 Ry
     estimated scf accuracy    <       0.00001873 Ry

     total magnetization       =     4.94 Bohr mag/cell
     absolute magnetization    =     4.99 Bohr mag/cell
[tb_dev] Currently allocated     1.74E+01 Mbytes, locked:    0 /  14
[tb_pin] Currently allocated     0.00E+00 Mbytes, locked:    0 /   0

     iteration # 21     ecut=    65.00 Ry     beta= 0.40
     Davidson diagonalization with overlap

---- Real-time Memory Report at c_bands before calling an iterative solver
          1545 MiB given to the printing process from OS
          1330 MiB allocation reported by mallinfo(arena+hblkhd)
         45303 MiB available memory on the node where the printing process lives
     GPU memory used/free/total (MiB): 2928 / 13352 / 16280
------------------
     ethr =  1.08E-08,  avg # of iterations =  5.1

     negative rho (up, down):  0.000E+00 6.450E-05

     total cpu time spent up to now is       82.3 secs

     total energy              =    -615.38492031 Ry
     estimated scf accuracy    <       0.00000815 Ry

     total magnetization       =     4.85 Bohr mag/cell
     absolute magnetization    =     4.90 Bohr mag/cell
[tb_dev] Currently allocated     1.74E+01 Mbytes, locked:    0 /  14
[tb_pin] Currently allocated     0.00E+00 Mbytes, locked:    0 /   0

     iteration # 22     ecut=    65.00 Ry     beta= 0.40
     Davidson diagonalization with overlap

---- Real-time Memory Report at c_bands before calling an iterative solver
          1545 MiB given to the printing process from OS
          1330 MiB allocation reported by mallinfo(arena+hblkhd)
         45304 MiB available memory on the node where the printing process lives
     GPU memory used/free/total (MiB): 2928 / 13352 / 16280
------------------
     ethr =  1.08E-08,  avg # of iterations =  2.8

     negative rho (up, down):  0.000E+00 6.340E-05

     total cpu time spent up to now is       85.7 secs

     total energy              =    -615.38493964 Ry
     estimated scf accuracy    <       0.00000894 Ry

     total magnetization       =     4.82 Bohr mag/cell
     absolute magnetization    =     4.87 Bohr mag/cell
[tb_dev] Currently allocated     1.74E+01 Mbytes, locked:    0 /  14
[tb_pin] Currently allocated     0.00E+00 Mbytes, locked:    0 /   0

     iteration # 23     ecut=    65.00 Ry     beta= 0.40
     Davidson diagonalization with overlap

---- Real-time Memory Report at c_bands before calling an iterative solver
          1545 MiB given to the printing process from OS
          1330 MiB allocation reported by mallinfo(arena+hblkhd)
         45304 MiB available memory on the node where the printing process lives
     GPU memory used/free/total (MiB): 2928 / 13352 / 16280
------------------
     ethr =  1.08E-08,  avg # of iterations =  3.9

     negative rho (up, down):  0.000E+00 6.851E-05

     total cpu time spent up to now is       89.6 secs

     total energy              =    -615.38438791 Ry
     estimated scf accuracy    <       0.00001316 Ry

     total magnetization       =     4.77 Bohr mag/cell
     absolute magnetization    =     4.83 Bohr mag/cell
[tb_dev] Currently allocated     1.74E+01 Mbytes, locked:    0 /  14
[tb_pin] Currently allocated     0.00E+00 Mbytes, locked:    0 /   0

     iteration # 24     ecut=    65.00 Ry     beta= 0.40
     Davidson diagonalization with overlap

---- Real-time Memory Report at c_bands before calling an iterative solver
          1545 MiB given to the printing process from OS
          1330 MiB allocation reported by mallinfo(arena+hblkhd)
         45304 MiB available memory on the node where the printing process lives
     GPU memory used/free/total (MiB): 2928 / 13352 / 16280
------------------
     ethr =  1.08E-08,  avg # of iterations =  5.7

     negative rho (up, down):  0.000E+00 5.933E-05

     total cpu time spent up to now is       94.6 secs

     total energy              =    -615.38395015 Ry
     estimated scf accuracy    <       0.00002158 Ry

     total magnetization       =     4.94 Bohr mag/cell
     absolute magnetization    =     5.00 Bohr mag/cell
[tb_dev] Currently allocated     1.74E+01 Mbytes, locked:    0 /  14
[tb_pin] Currently allocated     0.00E+00 Mbytes, locked:    0 /   0

     iteration # 25     ecut=    65.00 Ry     beta= 0.40
     Davidson diagonalization with overlap

---- Real-time Memory Report at c_bands before calling an iterative solver
          1545 MiB given to the printing process from OS
          1330 MiB allocation reported by mallinfo(arena+hblkhd)
         45304 MiB available memory on the node where the printing process lives
     GPU memory used/free/total (MiB): 2928 / 13352 / 16280
------------------
     ethr =  1.08E-08,  avg # of iterations =  7.0

     negative rho (up, down):  0.000E+00 5.713E-05

     total cpu time spent up to now is      100.4 secs

     total energy              =    -615.38538371 Ry
     estimated scf accuracy    <       0.00008875 Ry

     total magnetization       =     4.53 Bohr mag/cell
     absolute magnetization    =     4.59 Bohr mag/cell
[tb_dev] Currently allocated     1.74E+01 Mbytes, locked:    0 /  14
[tb_pin] Currently allocated     0.00E+00 Mbytes, locked:    0 /   0

     iteration # 26     ecut=    65.00 Ry     beta= 0.40
     Davidson diagonalization with overlap

---- Real-time Memory Report at c_bands before calling an iterative solver
          1545 MiB given to the printing process from OS
          1330 MiB allocation reported by mallinfo(arena+hblkhd)
         45305 MiB available memory on the node where the printing process lives
     GPU memory used/free/total (MiB): 2928 / 13352 / 16280
------------------
     ethr =  1.08E-08,  avg # of iterations =  5.1

     negative rho (up, down):  0.000E+00 7.593E-05

     total cpu time spent up to now is      105.0 secs

     total energy              =    -615.37723207 Ry
     estimated scf accuracy    <       0.00016596 Ry

     total magnetization       =     4.38 Bohr mag/cell
     absolute magnetization    =     4.44 Bohr mag/cell
[tb_dev] Currently allocated     1.74E+01 Mbytes, locked:    0 /  14
[tb_pin] Currently allocated     0.00E+00 Mbytes, locked:    0 /   0

     iteration # 27     ecut=    65.00 Ry     beta= 0.40
     Davidson diagonalization with overlap

---- Real-time Memory Report at c_bands before calling an iterative solver
          1545 MiB given to the printing process from OS
          1330 MiB allocation reported by mallinfo(arena+hblkhd)
         45305 MiB available memory on the node where the printing process lives
     GPU memory used/free/total (MiB): 2928 / 13352 / 16280
------------------
     ethr =  1.08E-08,  avg # of iterations =  7.7

     negative rho (up, down):  0.000E+00 7.696E-05

     total cpu time spent up to now is      111.5 secs

     total energy              =    -615.38375833 Ry
     estimated scf accuracy    <       0.00061829 Ry

     total magnetization       =     5.00 Bohr mag/cell
     absolute magnetization    =     5.06 Bohr mag/cell
[tb_dev] Currently allocated     1.74E+01 Mbytes, locked:    0 /  14
[tb_pin] Currently allocated     0.00E+00 Mbytes, locked:    0 /   0

     iteration # 28     ecut=    65.00 Ry     beta= 0.40
     Davidson diagonalization with overlap

---- Real-time Memory Report at c_bands before calling an iterative solver
          1545 MiB given to the printing process from OS
          1330 MiB allocation reported by mallinfo(arena+hblkhd)
         45305 MiB available memory on the node where the printing process lives
     GPU memory used/free/total (MiB): 2928 / 13352 / 16280
------------------
     ethr =  1.08E-08,  avg # of iterations =  3.3

     negative rho (up, down):  0.000E+00 6.369E-05

     total cpu time spent up to now is      115.2 secs

     total energy              =    -615.38407916 Ry
     estimated scf accuracy    <       0.00081442 Ry

     total magnetization       =     5.00 Bohr mag/cell
     absolute magnetization    =     5.06 Bohr mag/cell
[tb_dev] Currently allocated     1.74E+01 Mbytes, locked:    0 /  14
[tb_pin] Currently allocated     0.00E+00 Mbytes, locked:    0 /   0

     iteration # 29     ecut=    65.00 Ry     beta= 0.40
     Davidson diagonalization with overlap

---- Real-time Memory Report at c_bands before calling an iterative solver
          1545 MiB given to the printing process from OS
          1330 MiB allocation reported by mallinfo(arena+hblkhd)
         45306 MiB available memory on the node where the printing process lives
     GPU memory used/free/total (MiB): 2928 / 13352 / 16280
------------------
     ethr =  1.08E-08,  avg # of iterations =  7.2

     negative rho (up, down):  0.000E+00 6.616E-05

     total cpu time spent up to now is      121.3 secs

     total energy              =    -615.38477420 Ry
     estimated scf accuracy    <       0.00001080 Ry

     total magnetization       =     4.78 Bohr mag/cell
     absolute magnetization    =     4.84 Bohr mag/cell
[tb_dev] Currently allocated     1.74E+01 Mbytes, locked:    0 /  14
[tb_pin] Currently allocated     0.00E+00 Mbytes, locked:    0 /   0

     iteration # 30     ecut=    65.00 Ry     beta= 0.40
     Davidson diagonalization with overlap

---- Real-time Memory Report at c_bands before calling an iterative solver
          1545 MiB given to the printing process from OS
          1330 MiB allocation reported by mallinfo(arena+hblkhd)
         45306 MiB available memory on the node where the printing process lives
     GPU memory used/free/total (MiB): 2928 / 13352 / 16280
------------------
     ethr =  1.08E-08,  avg # of iterations =  4.8

     negative rho (up, down):  0.000E+00 7.217E-05

     total cpu time spent up to now is      125.8 secs

     total energy              =    -615.38418727 Ry
     estimated scf accuracy    <       0.00000543 Ry

     total magnetization       =     4.88 Bohr mag/cell
     absolute magnetization    =     4.94 Bohr mag/cell
[tb_dev] Currently allocated     1.74E+01 Mbytes, locked:    0 /  14
[tb_pin] Currently allocated     0.00E+00 Mbytes, locked:    0 /   0

     iteration # 31     ecut=    65.00 Ry     beta= 0.40
     Davidson diagonalization with overlap

---- Real-time Memory Report at c_bands before calling an iterative solver
          1546 MiB given to the printing process from OS
          1330 MiB allocation reported by mallinfo(arena+hblkhd)
         45305 MiB available memory on the node where the printing process lives
     GPU memory used/free/total (MiB): 2928 / 13352 / 16280
------------------
     ethr =  7.86E-09,  avg # of iterations =  6.1

     negative rho (up, down):  0.000E+00 6.793E-05

     total cpu time spent up to now is      131.2 secs

     total energy              =    -615.38472828 Ry
     estimated scf accuracy    <       0.00015756 Ry

     total magnetization       =     4.99 Bohr mag/cell
     absolute magnetization    =     5.05 Bohr mag/cell
[tb_dev] Currently allocated     1.74E+01 Mbytes, locked:    0 /  14
[tb_pin] Currently allocated     0.00E+00 Mbytes, locked:    0 /   0

     iteration # 32     ecut=    65.00 Ry     beta= 0.40
     Davidson diagonalization with overlap

---- Real-time Memory Report at c_bands before calling an iterative solver
          1546 MiB given to the printing process from OS
          1330 MiB allocation reported by mallinfo(arena+hblkhd)
         45306 MiB available memory on the node where the printing process lives
     GPU memory used/free/total (MiB): 2928 / 13352 / 16280
------------------
     ethr =  7.86E-09,  avg # of iterations =  5.5

     negative rho (up, down):  0.000E+00 6.936E-05

     total cpu time spent up to now is      136.2 secs

     total energy              =    -615.38474060 Ry
     estimated scf accuracy    <       0.00001181 Ry

     total magnetization       =     4.93 Bohr mag/cell
     absolute magnetization    =     4.99 Bohr mag/cell
[tb_dev] Currently allocated     1.74E+01 Mbytes, locked:    0 /  14
[tb_pin] Currently allocated     0.00E+00 Mbytes, locked:    0 /   0

     iteration # 33     ecut=    65.00 Ry     beta= 0.40
     Davidson diagonalization with overlap

---- Real-time Memory Report at c_bands before calling an iterative solver
          1546 MiB given to the printing process from OS
          1330 MiB allocation reported by mallinfo(arena+hblkhd)
         45306 MiB available memory on the node where the printing process lives
     GPU memory used/free/total (MiB): 2928 / 13352 / 16280
------------------
     ethr =  7.86E-09,  avg # of iterations =  4.1

     negative rho (up, down):  0.000E+00 7.039E-05

     total cpu time spent up to now is      140.3 secs

     total energy              =    -615.38468172 Ry
     estimated scf accuracy    <       0.00003166 Ry

     total magnetization       =     4.96 Bohr mag/cell
     absolute magnetization    =     5.02 Bohr mag/cell
[tb_dev] Currently allocated     1.74E+01 Mbytes, locked:    0 /  14
[tb_pin] Currently allocated     0.00E+00 Mbytes, locked:    0 /   0

     iteration # 34     ecut=    65.00 Ry     beta= 0.40
     Davidson diagonalization with overlap

---- Real-time Memory Report at c_bands before calling an iterative solver
          1546 MiB given to the printing process from OS
          1330 MiB allocation reported by mallinfo(arena+hblkhd)
         45305 MiB available memory on the node where the printing process lives
     GPU memory used/free/total (MiB): 2928 / 13352 / 16280
------------------
     ethr =  7.86E-09,  avg # of iterations =  3.8

     negative rho (up, down):  0.000E+00 7.127E-05

     total cpu time spent up to now is      144.3 secs

     total energy              =    -615.38460883 Ry
     estimated scf accuracy    <       0.00005860 Ry

     total magnetization       =     4.97 Bohr mag/cell
     absolute magnetization    =     5.03 Bohr mag/cell
[tb_dev] Currently allocated     1.74E+01 Mbytes, locked:    0 /  14
[tb_pin] Currently allocated     0.00E+00 Mbytes, locked:    0 /   0

     iteration # 35     ecut=    65.00 Ry     beta= 0.40
     Davidson diagonalization with overlap

---- Real-time Memory Report at c_bands before calling an iterative solver
          1546 MiB given to the printing process from OS
          1330 MiB allocation reported by mallinfo(arena+hblkhd)
         45306 MiB available memory on the node where the printing process lives
     GPU memory used/free/total (MiB): 2928 / 13352 / 16280
------------------
     ethr =  7.86E-09,  avg # of iterations =  3.6

     negative rho (up, down):  0.000E+00 6.561E-05

     total cpu time spent up to now is      148.1 secs

     total energy              =    -615.38463880 Ry
     estimated scf accuracy    <       0.00009547 Ry

     total magnetization       =     4.98 Bohr mag/cell
     absolute magnetization    =     5.04 Bohr mag/cell
[tb_dev] Currently allocated     1.74E+01 Mbytes, locked:    0 /  14
[tb_pin] Currently allocated     0.00E+00 Mbytes, locked:    0 /   0

     iteration # 36     ecut=    65.00 Ry     beta= 0.40
     Davidson diagonalization with overlap

---- Real-time Memory Report at c_bands before calling an iterative solver
          1546 MiB given to the printing process from OS
          1330 MiB allocation reported by mallinfo(arena+hblkhd)
         45305 MiB available memory on the node where the printing process lives
     GPU memory used/free/total (MiB): 2928 / 13352 / 16280
------------------
     ethr =  7.86E-09,  avg # of iterations =  5.7

     negative rho (up, down):  0.000E+00 6.494E-05

     total cpu time spent up to now is      153.3 secs

     total energy              =    -615.38491030 Ry
     estimated scf accuracy    <       0.00000879 Ry

     total magnetization       =     4.86 Bohr mag/cell
     absolute magnetization    =     4.92 Bohr mag/cell
[tb_dev] Currently allocated     1.74E+01 Mbytes, locked:    0 /  14
[tb_pin] Currently allocated     0.00E+00 Mbytes, locked:    0 /   0

     iteration # 37     ecut=    65.00 Ry     beta= 0.40
     Davidson diagonalization with overlap

---- Real-time Memory Report at c_bands before calling an iterative solver
          1546 MiB given to the printing process from OS
          1330 MiB allocation reported by mallinfo(arena+hblkhd)
         45305 MiB available memory on the node where the printing process lives
     GPU memory used/free/total (MiB): 2928 / 13352 / 16280
------------------
     ethr =  7.86E-09,  avg # of iterations =  3.1

     negative rho (up, down):  0.000E+00 6.308E-05

     total cpu time spent up to now is      157.0 secs

     total energy              =    -615.38491530 Ry
     estimated scf accuracy    <       0.00001069 Ry

     total magnetization       =     4.83 Bohr mag/cell
     absolute magnetization    =     4.89 Bohr mag/cell
[tb_dev] Currently allocated     1.74E+01 Mbytes, locked:    0 /  14
[tb_pin] Currently allocated     0.00E+00 Mbytes, locked:    0 /   0

     iteration # 38     ecut=    65.00 Ry     beta= 0.40
     Davidson diagonalization with overlap

---- Real-time Memory Report at c_bands before calling an iterative solver
          1546 MiB given to the printing process from OS
          1330 MiB allocation reported by mallinfo(arena+hblkhd)
         45305 MiB available memory on the node where the printing process lives
     GPU memory used/free/total (MiB): 2928 / 13352 / 16280
------------------
     ethr =  7.86E-09,  avg # of iterations =  5.2

     negative rho (up, down):  0.000E+00 5.793E-05

     total cpu time spent up to now is      161.5 secs

     total energy              =    -615.38478284 Ry
     estimated scf accuracy    <       0.00002134 Ry

     total magnetization       =     4.75 Bohr mag/cell
     absolute magnetization    =     4.80 Bohr mag/cell
[tb_dev] Currently allocated     1.74E+01 Mbytes, locked:    0 /  14
[tb_pin] Currently allocated     0.00E+00 Mbytes, locked:    0 /   0

     iteration # 39     ecut=    65.00 Ry     beta= 0.40
     Davidson diagonalization with overlap

---- Real-time Memory Report at c_bands before calling an iterative solver
          1546 MiB given to the printing process from OS
          1330 MiB allocation reported by mallinfo(arena+hblkhd)
         45306 MiB available memory on the node where the printing process lives
     GPU memory used/free/total (MiB): 2928 / 13352 / 16280
------------------
     ethr =  7.86E-09,  avg # of iterations =  5.9

     negative rho (up, down):  0.000E+00 6.231E-05

     total cpu time spent up to now is      166.8 secs

     total energy              =    -615.38446846 Ry
     estimated scf accuracy    <       0.00015252 Ry

     total magnetization       =     4.43 Bohr mag/cell
     absolute magnetization    =     4.48 Bohr mag/cell
[tb_dev] Currently allocated     1.74E+01 Mbytes, locked:    0 /  14
[tb_pin] Currently allocated     0.00E+00 Mbytes, locked:    0 /   0

     iteration # 40     ecut=    65.00 Ry     beta= 0.40
     Davidson diagonalization with overlap

---- Real-time Memory Report at c_bands before calling an iterative solver
          1546 MiB given to the printing process from OS
          1330 MiB allocation reported by mallinfo(arena+hblkhd)
         45307 MiB available memory on the node where the printing process lives
     GPU memory used/free/total (MiB): 2928 / 13352 / 16280
------------------
     ethr =  7.86E-09,  avg # of iterations =  5.8

     negative rho (up, down):  0.000E+00 5.748E-05

     total cpu time spent up to now is      171.9 secs

     total energy              =    -615.38488450 Ry
     estimated scf accuracy    <       0.00002476 Ry

     total magnetization       =     4.71 Bohr mag/cell
     absolute magnetization    =     4.77 Bohr mag/cell
[tb_dev] Currently allocated     1.74E+01 Mbytes, locked:    0 /  14
[tb_pin] Currently allocated     0.00E+00 Mbytes, locked:    0 /   0

     iteration # 41     ecut=    65.00 Ry     beta= 0.40
     Davidson diagonalization with overlap

---- Real-time Memory Report at c_bands before calling an iterative solver
          1546 MiB given to the printing process from OS
          1330 MiB allocation reported by mallinfo(arena+hblkhd)
         45306 MiB available memory on the node where the printing process lives
     GPU memory used/free/total (MiB): 2928 / 13352 / 16280
------------------
     ethr =  7.86E-09,  avg # of iterations =  5.8

     negative rho (up, down):  0.000E+00 6.138E-05

     total cpu time spent up to now is      177.1 secs

     total energy              =    -615.38464354 Ry
     estimated scf accuracy    <       0.00016810 Ry

     total magnetization       =     4.40 Bohr mag/cell
     absolute magnetization    =     4.45 Bohr mag/cell
[tb_dev] Currently allocated     1.74E+01 Mbytes, locked:    0 /  14
[tb_pin] Currently allocated     0.00E+00 Mbytes, locked:    0 /   0

     iteration # 42     ecut=    65.00 Ry     beta= 0.40
     Davidson diagonalization with overlap

---- Real-time Memory Report at c_bands before calling an iterative solver
          1546 MiB given to the printing process from OS
          1330 MiB allocation reported by mallinfo(arena+hblkhd)
         45301 MiB available memory on the node where the printing process lives
     GPU memory used/free/total (MiB): 2928 / 13352 / 16280
------------------
     ethr =  7.86E-09,  avg # of iterations =  5.7

     negative rho (up, down):  0.000E+00 6.011E-05

     total cpu time spent up to now is      182.1 secs

     total energy              =    -615.38512482 Ry
     estimated scf accuracy    <       0.00004503 Ry

     total magnetization       =     4.65 Bohr mag/cell
     absolute magnetization    =     4.71 Bohr mag/cell
[tb_dev] Currently allocated     1.74E+01 Mbytes, locked:    0 /  14
[tb_pin] Currently allocated     0.00E+00 Mbytes, locked:    0 /   0

     iteration # 43     ecut=    65.00 Ry     beta= 0.40
     Davidson diagonalization with overlap

---- Real-time Memory Report at c_bands before calling an iterative solver
          1546 MiB given to the printing process from OS
          1330 MiB allocation reported by mallinfo(arena+hblkhd)
         45303 MiB available memory on the node where the printing process lives
     GPU memory used/free/total (MiB): 2928 / 13352 / 16280
------------------
     ethr =  7.86E-09,  avg # of iterations =  4.1

     negative rho (up, down):  0.000E+00 5.916E-05

     total cpu time spent up to now is      186.2 secs

     total energy              =    -615.38523951 Ry
     estimated scf accuracy    <       0.00007883 Ry

     total magnetization       =     4.57 Bohr mag/cell
     absolute magnetization    =     4.63 Bohr mag/cell
[tb_dev] Currently allocated     1.74E+01 Mbytes, locked:    0 /  14
[tb_pin] Currently allocated     0.00E+00 Mbytes, locked:    0 /   0

     iteration # 44     ecut=    65.00 Ry     beta= 0.40
     Davidson diagonalization with overlap

---- Real-time Memory Report at c_bands before calling an iterative solver
          1546 MiB given to the printing process from OS
          1330 MiB allocation reported by mallinfo(arena+hblkhd)
         45305 MiB available memory on the node where the printing process lives
     GPU memory used/free/total (MiB): 2928 / 13352 / 16280
------------------
     ethr =  7.86E-09,  avg # of iterations =  3.8

     negative rho (up, down):  0.000E+00 6.644E-05

     total cpu time spent up to now is      190.1 secs

     total energy              =    -615.38361661 Ry
     estimated scf accuracy    <       0.00010742 Ry

     total magnetization       =     4.51 Bohr mag/cell
     absolute magnetization    =     4.57 Bohr mag/cell
[tb_dev] Currently allocated     1.74E+01 Mbytes, locked:    0 /  14
[tb_pin] Currently allocated     0.00E+00 Mbytes, locked:    0 /   0

     iteration # 45     ecut=    65.00 Ry     beta= 0.40
     Davidson diagonalization with overlap

---- Real-time Memory Report at c_bands before calling an iterative solver
          1546 MiB given to the printing process from OS
          1330 MiB allocation reported by mallinfo(arena+hblkhd)
         45305 MiB available memory on the node where the printing process lives
     GPU memory used/free/total (MiB): 2928 / 13352 / 16280
------------------
     ethr =  7.86E-09,  avg # of iterations =  6.8

     negative rho (up, down):  0.000E+00 6.811E-05

     total cpu time spent up to now is      195.8 secs

     total energy              =    -615.38478075 Ry
     estimated scf accuracy    <       0.00000773 Ry

     total magnetization       =     4.89 Bohr mag/cell
     absolute magnetization    =     4.95 Bohr mag/cell
[tb_dev] Currently allocated     1.74E+01 Mbytes, locked:    0 /  14
[tb_pin] Currently allocated     0.00E+00 Mbytes, locked:    0 /   0

     iteration # 46     ecut=    65.00 Ry     beta= 0.40
     Davidson diagonalization with overlap

---- Real-time Memory Report at c_bands before calling an iterative solver
          1546 MiB given to the printing process from OS
          1330 MiB allocation reported by mallinfo(arena+hblkhd)
         45305 MiB available memory on the node where the printing process lives
     GPU memory used/free/total (MiB): 2928 / 13352 / 16280
------------------
     ethr =  7.86E-09,  avg # of iterations =  4.8

     negative rho (up, down):  0.000E+00 6.962E-05

     total cpu time spent up to now is      200.3 secs

     total energy              =    -615.38471881 Ry
     estimated scf accuracy    <       0.00001326 Ry

     total magnetization       =     4.94 Bohr mag/cell
     absolute magnetization    =     4.99 Bohr mag/cell
[tb_dev] Currently allocated     1.74E+01 Mbytes, locked:    0 /  14
[tb_pin] Currently allocated     0.00E+00 Mbytes, locked:    0 /   0

     iteration # 47     ecut=    65.00 Ry     beta= 0.40
     Davidson diagonalization with overlap

---- Real-time Memory Report at c_bands before calling an iterative solver
          1546 MiB given to the printing process from OS
          1330 MiB allocation reported by mallinfo(arena+hblkhd)
         45304 MiB available memory on the node where the printing process lives
     GPU memory used/free/total (MiB): 2928 / 13352 / 16280
------------------
     ethr =  7.86E-09,  avg # of iterations =  4.4

     negative rho (up, down):  0.000E+00 6.097E-05

     total cpu time spent up to now is      204.6 secs

     total energy              =    -615.38411080 Ry
     estimated scf accuracy    <       0.00003512 Ry

     total magnetization       =     4.96 Bohr mag/cell
     absolute magnetization    =     5.02 Bohr mag/cell
[tb_dev] Currently allocated     1.74E+01 Mbytes, locked:    0 /  14
[tb_pin] Currently allocated     0.00E+00 Mbytes, locked:    0 /   0

     iteration # 48     ecut=    65.00 Ry     beta= 0.40
     Davidson diagonalization with overlap

---- Real-time Memory Report at c_bands before calling an iterative solver
          1546 MiB given to the printing process from OS
[...]
------------------
     ethr =  7.86E-09,  avg # of iterations =  4.0

     negative rho (up, down):  0.000E+00 5.416E-05

     total cpu time spent up to now is      289.9 secs

     total energy              =    -615.38616282 Ry
     estimated scf accuracy    <       0.00030518 Ry

     total magnetization       =     4.22 Bohr mag/cell
     absolute magnetization    =     4.28 Bohr mag/cell
[tb_dev] Currently allocated     1.74E+01 Mbytes, locked:    0 /  14
[tb_pin] Currently allocated     0.00E+00 Mbytes, locked:    0 /   0

     iteration # 66     ecut=    65.00 Ry     beta= 0.40
     Davidson diagonalization with overlap

---- Real-time Memory Report at c_bands before calling an iterative solver
          1546 MiB given to the printing process from OS
          1330 MiB allocation reported by mallinfo(arena+hblkhd)
         45304 MiB available memory on the node where the printing process lives
     GPU memory used/free/total (MiB): 2928 / 13352 / 16280
------------------
     ethr =  7.86E-09,  avg # of iterations =  4.0

     negative rho (up, down):  0.000E+00 5.523E-05

     total cpu time spent up to now is      293.9 secs

     total energy              =    -615.38589973 Ry
     estimated scf accuracy    <       0.00039119 Ry

     total magnetization       =     4.15 Bohr mag/cell
     absolute magnetization    =     4.21 Bohr mag/cell
[tb_dev] Currently allocated     1.74E+01 Mbytes, locked:    0 /  14
[tb_pin] Currently allocated     0.00E+00 Mbytes, locked:    0 /   0

     iteration # 67     ecut=    65.00 Ry     beta= 0.40
     Davidson diagonalization with overlap

---- Real-time Memory Report at c_bands before calling an iterative solver
          1546 MiB given to the printing process from OS
          1330 MiB allocation reported by mallinfo(arena+hblkhd)
         45304 MiB available memory on the node where the printing process lives
     GPU memory used/free/total (MiB): 2928 / 13352 / 16280
------------------
     ethr =  7.86E-09,  avg # of iterations =  4.0

     negative rho (up, down):  0.000E+00 3.702E-05

     total cpu time spent up to now is      297.9 secs

     total energy              =    -615.38493045 Ry
     estimated scf accuracy    <       0.00030090 Ry

     total magnetization       =     4.23 Bohr mag/cell
     absolute magnetization    =     4.29 Bohr mag/cell
[tb_dev] Currently allocated     1.74E+01 Mbytes, locked:    0 /  14
[tb_pin] Currently allocated     0.00E+00 Mbytes, locked:    0 /   0

     iteration # 68     ecut=    65.00 Ry     beta= 0.40
     Davidson diagonalization with overlap

---- Real-time Memory Report at c_bands before calling an iterative solver
          1546 MiB given to the printing process from OS
          1330 MiB allocation reported by mallinfo(arena+hblkhd)
         45304 MiB available memory on the node where the printing process lives
     GPU memory used/free/total (MiB): 2928 / 13352 / 16280
------------------
     ethr =  7.86E-09,  avg # of iterations =  8.1

     negative rho (up, down):  0.000E+00 6.708E-05

     total cpu time spent up to now is      304.6 secs

     total energy              =    -615.35915220 Ry
     estimated scf accuracy    <       0.04930998 Ry

     total magnetization       =     3.07 Bohr mag/cell
     absolute magnetization    =     3.98 Bohr mag/cell
[tb_dev] Currently allocated     1.74E+01 Mbytes, locked:    0 /  14
[tb_pin] Currently allocated     0.00E+00 Mbytes, locked:    0 /   0

     iteration # 69     ecut=    65.00 Ry     beta= 0.40
     Davidson diagonalization with overlap

---- Real-time Memory Report at c_bands before calling an iterative solver
          1546 MiB given to the printing process from OS
          1330 MiB allocation reported by mallinfo(arena+hblkhd)
         45305 MiB available memory on the node where the printing process lives
     GPU memory used/free/total (MiB): 2928 / 13352 / 16280
------------------
     ethr =  7.86E-09,  avg # of iterations =  9.5

     negative rho (up, down):  0.000E+00 6.770E-05

     total cpu time spent up to now is      311.8 secs

     total energy              =    -615.38483641 Ry
     estimated scf accuracy    <       0.00001103 Ry

     total magnetization       =     4.91 Bohr mag/cell
     absolute magnetization    =     4.96 Bohr mag/cell
[tb_dev] Currently allocated     1.74E+01 Mbytes, locked:    0 /  14
[tb_pin] Currently allocated     0.00E+00 Mbytes, locked:    0 /   0

     iteration # 70     ecut=    65.00 Ry     beta= 0.40
     Davidson diagonalization with overlap

---- Real-time Memory Report at c_bands before calling an iterative solver
          1546 MiB given to the printing process from OS
          1330 MiB allocation reported by mallinfo(arena+hblkhd)
         45305 MiB available memory on the node where the printing process lives
     GPU memory used/free/total (MiB): 2928 / 13352 / 16280
------------------
     ethr =  7.86E-09,  avg # of iterations =  3.6

     negative rho (up, down):  0.000E+00 6.904E-05

     total cpu time spent up to now is      315.6 secs

     total energy              =    -615.38476787 Ry
     estimated scf accuracy    <       0.00001503 Ry

     total magnetization       =     4.92 Bohr mag/cell
     absolute magnetization    =     4.98 Bohr mag/cell
[tb_dev] Currently allocated     1.74E+01 Mbytes, locked:    0 /  14
[tb_pin] Currently allocated     0.00E+00 Mbytes, locked:    0 /   0

     iteration # 71     ecut=    65.00 Ry     beta= 0.40
     Davidson diagonalization with overlap

---- Real-time Memory Report at c_bands before calling an iterative solver
          1546 MiB given to the printing process from OS
          1330 MiB allocation reported by mallinfo(arena+hblkhd)
         45298 MiB available memory on the node where the printing process lives
     GPU memory used/free/total (MiB): 2928 / 13352 / 16280
------------------
     ethr =  7.86E-09,  avg # of iterations =  4.3

     negative rho (up, down):  0.000E+00 7.396E-05

     total cpu time spent up to now is      319.8 secs

     total energy              =    -615.38415658 Ry
     estimated scf accuracy    <       0.00003221 Ry

     total magnetization       =     4.95 Bohr mag/cell
     absolute magnetization    =     5.01 Bohr mag/cell
[tb_dev] Currently allocated     1.74E+01 Mbytes, locked:    0 /  14
[tb_pin] Currently allocated     0.00E+00 Mbytes, locked:    0 /   0

     iteration # 72     ecut=    65.00 Ry     beta= 0.40
     Davidson diagonalization with overlap

---- Real-time Memory Report at c_bands before calling an iterative solver
          1546 MiB given to the printing process from OS
          1330 MiB allocation reported by mallinfo(arena+hblkhd)
         45301 MiB available memory on the node where the printing process lives
     GPU memory used/free/total (MiB): 2928 / 13352 / 16280
------------------
     ethr =  7.86E-09,  avg # of iterations =  5.9

     negative rho (up, down):  0.000E+00 8.234E-05

     total cpu time spent up to now is      325.0 secs

     total energy              =    -615.38196552 Ry
     estimated scf accuracy    <       0.00032513 Ry

     total magnetization       =     4.99 Bohr mag/cell
     absolute magnetization    =     5.06 Bohr mag/cell
[tb_dev] Currently allocated     1.74E+01 Mbytes, locked:    0 /  14
[tb_pin] Currently allocated     0.00E+00 Mbytes, locked:    0 /   0

     iteration # 73     ecut=    65.00 Ry     beta= 0.40
     Davidson diagonalization with overlap

---- Real-time Memory Report at c_bands before calling an iterative solver
          1546 MiB given to the printing process from OS
          1330 MiB allocation reported by mallinfo(arena+hblkhd)
         45304 MiB available memory on the node where the printing process lives
     GPU memory used/free/total (MiB): 2928 / 13352 / 16280
------------------
     ethr =  7.86E-09,  avg # of iterations =  7.3

     negative rho (up, down):  0.000E+00 6.045E-05

     total cpu time spent up to now is      331.0 secs

     total energy              =    -615.38280343 Ry
     estimated scf accuracy    <       0.00231422 Ry

     total magnetization       =     5.00 Bohr mag/cell
     absolute magnetization    =     5.07 Bohr mag/cell
[tb_dev] Currently allocated     1.74E+01 Mbytes, locked:    0 /  14
[tb_pin] Currently allocated     0.00E+00 Mbytes, locked:    0 /   0

     iteration # 74     ecut=    65.00 Ry     beta= 0.40
     Davidson diagonalization with overlap

---- Real-time Memory Report at c_bands before calling an iterative solver
          1546 MiB given to the printing process from OS
          1330 MiB allocation reported by mallinfo(arena+hblkhd)
         45304 MiB available memory on the node where the printing process lives
     GPU memory used/free/total (MiB): 2928 / 13352 / 16280
------------------
     ethr =  7.86E-09,  avg # of iterations =  8.9

     negative rho (up, down):  0.000E+00 5.906E-05

     total cpu time spent up to now is      338.1 secs

     total energy              =    -615.38524572 Ry
     estimated scf accuracy    <       0.00009120 Ry

     total magnetization       =     4.58 Bohr mag/cell
     absolute magnetization    =     4.64 Bohr mag/cell
[tb_dev] Currently allocated     1.74E+01 Mbytes, locked:    0 /  14
[tb_pin] Currently allocated     0.00E+00 Mbytes, locked:    0 /   0

     iteration # 75     ecut=    65.00 Ry     beta= 0.40
     Davidson diagonalization with overlap

---- Real-time Memory Report at c_bands before calling an iterative solver
          1546 MiB given to the printing process from OS
          1330 MiB allocation reported by mallinfo(arena+hblkhd)
         45305 MiB available memory on the node where the printing process lives
     GPU memory used/free/total (MiB): 2928 / 13352 / 16280
------------------
     ethr =  7.86E-09,  avg # of iterations =  4.5

     negative rho (up, down):  0.000E+00 6.107E-05

     total cpu time spent up to now is      342.4 secs

     total energy              =    -615.38498713 Ry
     estimated scf accuracy    <       0.00013946 Ry

     total magnetization       =     4.49 Bohr mag/cell
     absolute magnetization    =     4.55 Bohr mag/cell
[tb_dev] Currently allocated     1.74E+01 Mbytes, locked:    0 /  14
[tb_pin] Currently allocated     0.00E+00 Mbytes, locked:    0 /   0

     iteration # 76     ecut=    65.00 Ry     beta= 0.40
     Davidson diagonalization with overlap

---- Real-time Memory Report at c_bands before calling an iterative solver
          1546 MiB given to the printing process from OS
          1330 MiB allocation reported by mallinfo(arena+hblkhd)
         45305 MiB available memory on the node where the printing process lives
     GPU memory used/free/total (MiB): 2928 / 13352 / 16280
------------------
     ethr =  7.86E-09,  avg # of iterations =  4.8

     negative rho (up, down):  0.000E+00 6.441E-05

     total cpu time spent up to now is      346.9 secs

     total energy              =    -615.38466504 Ry
     estimated scf accuracy    <       0.00006954 Ry

     total magnetization       =     4.62 Bohr mag/cell
     absolute magnetization    =     4.68 Bohr mag/cell
[tb_dev] Currently allocated     1.74E+01 Mbytes, locked:    0 /  14
[tb_pin] Currently allocated     0.00E+00 Mbytes, locked:    0 /   0

     iteration # 77     ecut=    65.00 Ry     beta= 0.40
     Davidson diagonalization with overlap

---- Real-time Memory Report at c_bands before calling an iterative solver
          1546 MiB given to the printing process from OS
          1330 MiB allocation reported by mallinfo(arena+hblkhd)
         45305 MiB available memory on the node where the printing process lives
     GPU memory used/free/total (MiB): 2928 / 13352 / 16280
------------------
     ethr =  7.86E-09,  avg # of iterations =  5.7

     negative rho (up, down):  0.000E+00 6.266E-05

     total cpu time spent up to now is      351.9 secs

     total energy              =    -615.38493935 Ry
     estimated scf accuracy    <       0.00001389 Ry

     total magnetization       =     4.81 Bohr mag/cell
     absolute magnetization    =     4.86 Bohr mag/cell
[tb_dev] Currently allocated     1.74E+01 Mbytes, locked:    0 /  14
[tb_pin] Currently allocated     0.00E+00 Mbytes, locked:    0 /   0

     iteration # 78     ecut=    65.00 Ry     beta= 0.40
     Davidson diagonalization with overlap

---- Real-time Memory Report at c_bands before calling an iterative solver
          1546 MiB given to the printing process from OS
          1330 MiB allocation reported by mallinfo(arena+hblkhd)
         45305 MiB available memory on the node where the printing process lives
     GPU memory used/free/total (MiB): 2928 / 13352 / 16280
------------------
     ethr =  7.86E-09,  avg # of iterations =  4.4

     negative rho (up, down):  0.000E+00 6.287E-05

     total cpu time spent up to now is      356.4 secs

     total energy              =    -615.38498930 Ry
     estimated scf accuracy    <       0.00003082 Ry

     total magnetization       =     4.72 Bohr mag/cell
     absolute magnetization    =     4.78 Bohr mag/cell
[tb_dev] Currently allocated     1.74E+01 Mbytes, locked:    0 /  14
[tb_pin] Currently allocated     0.00E+00 Mbytes, locked:    0 /   0

     iteration # 79     ecut=    65.00 Ry     beta= 0.40
     Davidson diagonalization with overlap

---- Real-time Memory Report at c_bands before calling an iterative solver
          1546 MiB given to the printing process from OS
          1330 MiB allocation reported by mallinfo(arena+hblkhd)
         45305 MiB available memory on the node where the printing process lives
     GPU memory used/free/total (MiB): 2928 / 13352 / 16280
------------------
     ethr =  7.86E-09,  avg # of iterations =  1.1

     negative rho (up, down):  0.000E+00 6.333E-05

     total cpu time spent up to now is      359.1 secs

     total energy              =    -615.38496705 Ry
     estimated scf accuracy    <       0.00002794 Ry

     total magnetization       =     4.73 Bohr mag/cell
     absolute magnetization    =     4.79 Bohr mag/cell
[tb_dev] Currently allocated     1.74E+01 Mbytes, locked:    0 /  14
[tb_pin] Currently allocated     0.00E+00 Mbytes, locked:    0 /   0

     iteration # 80     ecut=    65.00 Ry     beta= 0.40
     Davidson diagonalization with overlap

---- Real-time Memory Report at c_bands before calling an iterative solver
          1546 MiB given to the printing process from OS
          1330 MiB allocation reported by mallinfo(arena+hblkhd)
         45305 MiB available memory on the node where the printing process lives
     GPU memory used/free/total (MiB): 2928 / 13352 / 16280
------------------
     ethr =  7.86E-09,  avg # of iterations =  2.3

     negative rho (up, down):  0.000E+00 6.334E-05

     total cpu time spent up to now is      362.3 secs

     total energy              =    -615.38497113 Ry
     estimated scf accuracy    <       0.00002481 Ry

     total magnetization       =     4.76 Bohr mag/cell
     absolute magnetization    =     4.81 Bohr mag/cell

     End of self-consistent calculation

     convergence NOT achieved after  80 iterations: stopping

     Writing config to output data dir ./out/aiida.save/
 
     init_run     :     12.62s CPU      4.28s WALL (       1 calls)
     electrons    :    594.05s CPU    357.45s WALL (       1 calls)

     Called by init_run:
     wfcinit      :      1.66s CPU      2.35s WALL (       1 calls)
                                        2.35s GPU  (       1 calls)
     wfcinit:atom :      0.02s CPU      0.05s WALL (      70 calls)
                                        0.05s GPU  (      70 calls)
     wfcinit:wfcr :      1.07s CPU      1.54s WALL (      70 calls)
                                        1.54s GPU  (      70 calls)
     potinit      :      1.66s CPU      0.15s WALL (       1 calls)
     hinit0       :      6.74s CPU      0.94s WALL (       1 calls)

     Called by electrons:
     c_bands      :    372.36s CPU    295.78s WALL (      80 calls)
     sum_band     :     41.22s CPU     44.84s WALL (      80 calls)
     v_of_rho     :     63.83s CPU      5.75s WALL (      81 calls)
     v_h          :     10.28s CPU      0.92s WALL (      81 calls)
     v_xc         :     53.54s CPU      4.83s WALL (      81 calls)
     newd         :     53.54s CPU      5.12s WALL (      81 calls)
                                        5.12s GPU  (      81 calls)
     mix_rho      :     40.03s CPU      3.84s WALL (      80 calls)

     Called by c_bands:
     init_us_2    :     16.08s CPU     15.00s WALL (   11270 calls)
     init_us_2:gp :     15.85s CPU     14.81s WALL (   11270 calls)
     cegterg      :    320.03s CPU    264.17s WALL (    5600 calls)

     Called by sum_band:
     sum_band:wei :      0.27s CPU      0.28s WALL (      80 calls)
                                        0.28s GPU  (      80 calls)
     sum_band:loo :     32.44s CPU     35.93s WALL (      80 calls)
                                       35.93s GPU  (      80 calls)
     sum_band:buf :      8.50s CPU      8.92s WALL (    5600 calls)
                                        8.89s GPU  (    5600 calls)
     sum_band:ini :      6.24s CPU      7.34s WALL (    5600 calls)
                                        7.31s GPU  (    5600 calls)
     sum_band:cal :      0.16s CPU      1.67s WALL (    5600 calls)
                                        1.22s GPU  (    5600 calls)
     sum_band:bec :      1.10s CPU      1.22s WALL (    5600 calls)
                                        1.18s GPU  (    5600 calls)
     addusdens    :      4.72s CPU      4.82s WALL (      80 calls)
                                        4.82s GPU  (      80 calls)
     addusd:skk   :      0.03s CPU      0.03s WALL (     160 calls)
                                        0.03s GPU  (     160 calls)

     Called by *egterg:
     cdiaghg      :    121.30s CPU    106.95s WALL (   31899 calls)
                                      106.73s GPU  (   31899 calls)
     cegterg:over :      7.64s CPU      6.26s WALL (   26299 calls)
     cegterg:upda :     11.80s CPU      9.73s WALL (   26299 calls)
     cegterg:last :      4.97s CPU      4.13s WALL (   13856 calls)
     h_psi        :    152.49s CPU    120.89s WALL (   31969 calls)
                                      120.61s GPU  (   31969 calls)
     s_psi        :      4.60s CPU      6.85s WALL (   31969 calls)
                                        6.34s GPU  (   31969 calls)
     g_psi        :      0.25s CPU      0.87s WALL (   26299 calls)
                                        0.70s GPU  (   26299 calls)

     Called by h_psi:
     h_psi:calbec :      1.28s CPU      5.83s WALL (   31969 calls)
                                        5.63s GPU  (   31969 calls)
     vloc_psi     :    129.31s CPU    103.63s WALL (   31969 calls)
                                      103.43s GPU  (   31969 calls)
     add_vuspsi   :      7.84s CPU      8.94s WALL (   31969 calls)
                                        8.74s GPU  (   31969 calls)

     General routines
     calbec       :      1.02s CPU      0.83s WALL (   37569 calls)
     fft          :      3.45s CPU      0.79s WALL (    2023 calls)
                                        0.59s GPU  (    1861 calls)
     ffts         :      0.07s CPU      0.05s WALL (     322 calls)
                                        0.01s GPU  (     160 calls)
     fftw         :      3.54s CPU     79.12s WALL (  141330 calls)
                                       78.30s GPU  (  141330 calls)
     interpolate  :      7.60s CPU      0.67s WALL (     162 calls)
     davcio       :      0.43s CPU      0.25s WALL (      88 calls)
 
     Parallel routines
 
     PWSCF        :  10m 9.95s CPU   6m 2.77s WALL

 
   This run was terminated on:  18:50: 4  22Oct2023            

=------------------------------------------------------------------------------=
   JOB DONE.
=------------------------------------------------------------------------------=
