
     Program PWSCF v.7.2 starts on 19Dec2023 at 22:40:37 
        Git branch: develop
        Last git commit: 9055681be6fc8200e6fffe76ed5fda34c2696339
        Last git commit date: Wed Nov 8 16:29:39 2023 +0000
        Last git commit subject: Merge branch 'calbec_fix' into 'develop'

     This program is part of the open-source Quantum ESPRESSO suite
     for quantum simulation of materials; please cite
         "P. Giannozzi et al., J. Phys.:Condens. Matter 21 395502 (2009);
         "P. Giannozzi et al., J. Phys.:Condens. Matter 29 465901 (2017);
         "P. Giannozzi et al., J. Chem. Phys. 152 154105 (2020);
          URL http://www.quantum-espresso.org", 
     in publications or presentations arising from this work. More details at
     http://www.quantum-espresso.org/quote

     Parallel version (MPI), running on    56 processors

     MPI processes distributed on     1 nodes
     491194 MiB available memory on the printing compute node when the environment starts

     Reading input from aiida.in

     Current dimensions of program PWSCF are:
     Max number of different atomic species (ntypx) = 10
     Max number of k-points (npk) =  40000
     Max angular momentum in pseudopotentials (lmaxx) =  4
     file Ba.pbesol-spn-kjpaw_psl.1.0.0.UPF: wavefunction(s)  5S 6S renormalized
     Message from routine setup:
     using ibrav=0 with symmetry is DISCOURAGED, use correct ibrav instead

     K-points division:     npool     =       7
     R & G space division:  proc/nbgrp/npool/nimage =       8
     Subspace diagonalization in iterative solution of the eigenvalue problem:
     a serial algorithm will be used


     Parallelization info
     --------------------
     sticks:   dense  smooth     PW     G-vecs:    dense   smooth      PW
     Min         533     266     82                16441     5811    1000
     Max         534     267     83                16442     5813    1001
     Sum        4267    2129    657               131535    46493    8001

     Using Slab Decomposition



     bravais-lattice index     =            0
     lattice parameter (alat)  =      14.9277  a.u.
     unit-cell volume          =     741.1755 (a.u.)^3
     number of atoms/cell      =            4
     number of atomic types    =            3
     number of electrons       =        32.00
     number of Kohn-Sham states=           24
     kinetic-energy cutoff     =      60.0000  Ry
     charge density cutoff     =     480.0000  Ry
     scf convergence threshold =      8.0E-10
     mixing beta               =       0.4000
     number of iterations used =            8  plain     mixing
     Exchange-correlation= PBESOL
                           (   1   4  10   8   0   0   0)

     celldm(1)=  14.927690  celldm(2)=   0.000000  celldm(3)=   0.000000
     celldm(4)=   0.000000  celldm(5)=   0.000000  celldm(6)=   0.000000

     crystal axes: (cart. coord. in units of alat)
               a(1) = (   0.259659   0.149914   0.953993 )  
               a(2) = (  -0.259659   0.149914   0.953993 )  
               a(3) = (   0.000000  -0.299829   0.953993 )  

     reciprocal axes: (cart. coord. in units 2 pi/alat)
               b(1) = (  1.925601  1.111746  0.349409 )  
               b(2) = ( -1.925601  1.111746  0.349409 )  
               b(3) = ( -0.000000 -2.223493  0.349409 )  


     PseudoPot. # 1 for Ba read from file:
     ./pseudo/Ba.pbesol-spn-kjpaw_psl.1.0.0.UPF
     MD5 check sum: f28c4a63d325c1a0d00fd3a4f19b8d73
     Pseudo is Projector augmented-wave + core cor, Zval = 10.0
     Generated using "atomic" code by A. Dal Corso  v.6.0 svn rev. 13079
     Shape of augmentation charge: PSQ
     Using radial grid of 1251 points,  7 beta functions with: 
                l(1) =   0
                l(2) =   0
                l(3) =   0
                l(4) =   1
                l(5) =   1
                l(6) =   2
                l(7) =   2
     Q(r) pseudized with 0 coefficients 


     PseudoPot. # 2 for Cl read from file:
     ./pseudo/cl_pbesol_v1.4.uspp.F.UPF
     MD5 check sum: ed6bbcf06f19043c0df9f6394706ff8f
     Pseudo is Ultrasoft + core correction, Zval =  7.0
     Generated by new atomic code, or converted to UPF format
     Using radial grid of  909 points,  6 beta functions with: 
                l(1) =   0
                l(2) =   0
                l(3) =   1
                l(4) =   1
                l(5) =   2
                l(6) =   2
     Q(r) pseudized with  8 coefficients,  rinner =    1.300   1.300   1.300
                                                       1.300   1.300

     PseudoPot. # 3 for N  read from file:
     ./pseudo/N.pbesol-theos.UPF
     MD5 check sum: 1b64827339d390a5a22afef3ff345c9d
     Pseudo is Ultrasoft + core correction, Zval =  5.0
     Generated using "atomic" code by A. Dal Corso  v.5.1
     Using radial grid of 1085 points,  4 beta functions with: 
                l(1) =   0
                l(2) =   0
                l(3) =   1
                l(4) =   1
     Q(r) pseudized with 0 coefficients 


     atomic species   valence    mass     pseudopotential
     Ba               10.00   137.32700     Ba( 1.00)
     Cl                7.00    35.45300     Cl( 1.00)
     N                 5.00    14.00670     N ( 1.00)

     Starting magnetic structure 
     atomic species   magnetization
     Ba              0.100
     Cl              0.100
     N               0.100

     12 Sym. Ops., with inversion, found


                                    s                        frac. trans.

      isym =  1     identity                                     

 cryst.   s( 1) = (     1          0          0      )
                  (     0          1          0      )
                  (     0          0          1      )

 cart.    s( 1) = (  1.0000000 -0.0000000  0.0000000 )
                  (  0.0000000  1.0000000 -0.0000000 )
                  (  0.0000000  0.0000000  1.0000000 )


      isym =  2     180 deg rotation - cart. axis [1,0,0]        

 cryst.   s( 2) = (     0         -1          0      )
                  (    -1          0          0      )
                  (     0          0         -1      )

 cart.    s( 2) = (  1.0000000  0.0000000 -0.0000000 )
                  ( -0.0000000 -1.0000000  0.0000000 )
                  ( -0.0000000 -0.0000000 -1.0000000 )


      isym =  3     120 deg rotation - cryst. axis [0,0,1]       

 cryst.   s( 3) = (     0          1          0      )
                  (     0          0          1      )
                  (     1          0          0      )

 cart.    s( 3) = ( -0.5000000 -0.8660254 -0.0000000 )
                  (  0.8660254 -0.5000000 -0.0000000 )
                  (  0.0000000 -0.0000000  1.0000000 )


      isym =  4     120 deg rotation - cryst. axis [0,0,-1]      

 cryst.   s( 4) = (     0          0          1      )
                  (     1          0          0      )
                  (     0          1          0      )

 cart.    s( 4) = ( -0.5000000  0.8660254  0.0000000 )
                  ( -0.8660254 -0.5000000 -0.0000000 )
                  (  0.0000000  0.0000000  1.0000000 )


      isym =  5     180 deg rotation - cryst. axis [0,1,0]       

 cryst.   s( 5) = (    -1          0          0      )
                  (     0          0         -1      )
                  (     0         -1          0      )

 cart.    s( 5) = ( -0.5000000 -0.8660254 -0.0000000 )
                  ( -0.8660254  0.5000000  0.0000000 )
                  ( -0.0000000 -0.0000000 -1.0000000 )


      isym =  6     180 deg rotation - cryst. axis [1,1,0]       

 cryst.   s( 6) = (     0          0         -1      )
                  (     0         -1          0      )
                  (    -1          0          0      )

 cart.    s( 6) = ( -0.5000000  0.8660254  0.0000000 )
                  (  0.8660254  0.5000000  0.0000000 )
                  ( -0.0000000  0.0000000 -1.0000000 )


      isym =  7     inversion                                    

 cryst.   s( 7) = (    -1          0          0      )
                  (     0         -1          0      )
                  (     0          0         -1      )

 cart.    s( 7) = ( -1.0000000  0.0000000 -0.0000000 )
                  ( -0.0000000 -1.0000000  0.0000000 )
                  ( -0.0000000 -0.0000000 -1.0000000 )


      isym =  8     inv. 180 deg rotation - cart. axis [1,0,0]   

 cryst.   s( 8) = (     0          1          0      )
                  (     1          0          0      )
                  (     0          0          1      )

 cart.    s( 8) = ( -1.0000000 -0.0000000  0.0000000 )
                  (  0.0000000  1.0000000 -0.0000000 )
                  (  0.0000000  0.0000000  1.0000000 )


      isym =  9     inv. 120 deg rotation - cryst. axis [0,0,1]  

 cryst.   s( 9) = (     0         -1          0      )
                  (     0          0         -1      )
                  (    -1          0          0      )

 cart.    s( 9) = (  0.5000000  0.8660254  0.0000000 )
                  ( -0.8660254  0.5000000  0.0000000 )
                  ( -0.0000000  0.0000000 -1.0000000 )


      isym = 10     inv. 120 deg rotation - cryst. axis [0,0,-1] 

 cryst.   s(10) = (     0          0         -1      )
                  (    -1          0          0      )
                  (     0         -1          0      )

 cart.    s(10) = (  0.5000000 -0.8660254 -0.0000000 )
                  (  0.8660254  0.5000000  0.0000000 )
                  ( -0.0000000 -0.0000000 -1.0000000 )


      isym = 11     inv. 180 deg rotation - cryst. axis [0,1,0]  

 cryst.   s(11) = (     1          0          0      )
                  (     0          0          1      )
                  (     0          1          0      )

 cart.    s(11) = (  0.5000000  0.8660254  0.0000000 )
                  (  0.8660254 -0.5000000 -0.0000000 )
                  (  0.0000000  0.0000000  1.0000000 )


      isym = 12     inv. 180 deg rotation - cryst. axis [1,1,0]  

 cryst.   s(12) = (     0          0          1      )
                  (     0          1          0      )
                  (     1          0          0      )

 cart.    s(12) = (  0.5000000 -0.8660254 -0.0000000 )
                  ( -0.8660254 -0.5000000 -0.0000000 )
                  (  0.0000000 -0.0000000  1.0000000 )


   Cartesian axes

     site n.     atom                  positions (alat units)
         1        Ba     tau(   1) = (  -0.0000000  -0.0000000   2.1985725  )
         2        Ba     tau(   2) = (  -0.0000000   0.2998286   2.5713930  )
         3        N      tau(   3) = (   0.2596592   0.1499143   2.3849827  )
         4        Cl     tau(   4) = (   0.0000000   0.0000000   0.0000000  )

   Crystallographic axes

     site n.     atom                  positions (cryst. coord.)
         1        Ba     tau(   1) = (  0.7682000  0.7682000  0.7682000  )
         2        Ba     tau(   2) = (  1.2318000  1.2318000  0.2318000  )
         3        N      tau(   3) = (  1.5000000  0.5000000  0.5000000  )
         4        Cl     tau(   4) = (  0.0000000  0.0000000  0.0000000  )

     number of k points=   189  Marzari-Vanderbilt smearing, width (Ry)=  0.0200
                       cart. coord. in units 2pi/alat
        k(    1) = (   0.0000000   0.0000000   0.0000000), wk =   0.0005787
        k(    2) = (  -0.0000000  -0.1852911   0.0291174), wk =   0.0034722
        k(    3) = (  -0.0000000  -0.3705821   0.0582348), wk =   0.0034722
        k(    4) = (  -0.0000000  -0.5558732   0.0873521), wk =   0.0034722
        k(    5) = (  -0.0000000  -0.7411642   0.1164695), wk =   0.0034722
        k(    6) = (  -0.0000000  -0.9264553   0.1455869), wk =   0.0034722
        k(    7) = (   0.0000000   1.1117463  -0.1747043), wk =   0.0017361
        k(    8) = (  -0.1604668  -0.0926455   0.0582348), wk =   0.0034722
        k(    9) = (  -0.1604668  -0.2779366   0.0873521), wk =   0.0069444
        k(   10) = (  -0.1604668  -0.4632276   0.1164695), wk =   0.0069444
        k(   11) = (  -0.1604668  -0.6485187   0.1455869), wk =   0.0069444
        k(   12) = (  -0.1604668  -0.8338097   0.1747043), wk =   0.0069444
        k(   13) = (  -0.1604668   1.2043918  -0.1455869), wk =   0.0069444
        k(   14) = (  -0.1604668   1.0191008  -0.1164695), wk =   0.0069444
        k(   15) = (  -0.1604668   0.8338097  -0.0873521), wk =   0.0069444
        k(   16) = (  -0.1604668   0.6485187  -0.0582348), wk =   0.0069444
        k(   17) = (  -0.1604668   0.4632276  -0.0291174), wk =   0.0069444
        k(   18) = (  -0.1604668   0.2779366   0.0000000), wk =   0.0034722
        k(   19) = (  -0.3209335  -0.1852911   0.1164695), wk =   0.0034722
        k(   20) = (  -0.3209335  -0.3705821   0.1455869), wk =   0.0069444
        k(   21) = (  -0.3209335  -0.5558732   0.1747043), wk =   0.0069444
        k(   22) = (  -0.3209335  -0.7411642   0.2038216), wk =   0.0069444
        k(   23) = (  -0.3209335   1.2970374  -0.1164695), wk =   0.0069444
        k(   24) = (  -0.3209335   1.1117463  -0.0873521), wk =   0.0069444
        k(   25) = (  -0.3209335   0.9264553  -0.0582348), wk =   0.0069444
        k(   26) = (  -0.3209335   0.7411642  -0.0291174), wk =   0.0069444
        k(   27) = (  -0.3209335   0.5558732   0.0000000), wk =   0.0034722
        k(   28) = (  -0.4814003  -0.2779366   0.1747043), wk =   0.0034722
        k(   29) = (  -0.4814003  -0.4632276   0.2038216), wk =   0.0069444
        k(   30) = (  -0.4814003  -0.6485187   0.2329390), wk =   0.0069444
        k(   31) = (  -0.4814003   1.3896829  -0.0873521), wk =   0.0069444
        k(   32) = (  -0.4814003   1.2043918  -0.0582348), wk =   0.0069444
        k(   33) = (  -0.4814003   1.0191008  -0.0291174), wk =   0.0069444
        k(   34) = (  -0.4814003   0.8338097   0.0000000), wk =   0.0034722
        k(   35) = (  -0.6418670  -0.3705821   0.2329390), wk =   0.0034722
        k(   36) = (  -0.6418670  -0.5558732   0.2620564), wk =   0.0069444
        k(   37) = (  -0.6418670   1.4823284  -0.0582348), wk =   0.0069444
        k(   38) = (  -0.6418670   1.2970374  -0.0291174), wk =   0.0069444
        k(   39) = (  -0.6418670   1.1117463   0.0000000), wk =   0.0034722
        k(   40) = (  -0.8023338  -0.4632276   0.2911738), wk =   0.0034722
        k(   41) = (  -0.8023338   1.5749739  -0.0291174), wk =   0.0069444
        k(   42) = (  -0.8023338   1.3896829   0.0000000), wk =   0.0034722
        k(   43) = (   0.9628005   0.5558732  -0.3494085), wk =   0.0017361
        k(   44) = (   0.0000000   0.0000000   0.0873521), wk =   0.0011574
        k(   45) = (   0.0000000  -0.1852911   0.1164695), wk =   0.0034722
        k(   46) = (   0.0000000  -0.3705821   0.1455869), wk =   0.0034722
        k(   47) = (   0.0000000  -0.5558732   0.1747043), wk =   0.0034722
        k(   48) = (  -0.0000000  -0.7411642   0.2038216), wk =   0.0034722
        k(   49) = (   0.0000000   1.2970374  -0.1164695), wk =   0.0034722
        k(   50) = (   0.0000000   1.1117463  -0.0873521), wk =   0.0034722
        k(   51) = (   0.0000000   0.9264553  -0.0582348), wk =   0.0034722
        k(   52) = (   0.0000000   0.7411642  -0.0291174), wk =   0.0034722
        k(   53) = (   0.0000000   0.5558732   0.0000000), wk =   0.0034722
        k(   54) = (   0.0000000   0.3705821   0.0291174), wk =   0.0034722
        k(   55) = (  -0.1604668  -0.0926455   0.1455869), wk =   0.0034722
        k(   56) = (  -0.1604668  -0.2779366   0.1747043), wk =   0.0069444
        k(   57) = (  -0.1604668  -0.4632276   0.2038216), wk =   0.0069444
        k(   58) = (  -0.1604668  -0.6485187   0.2329390), wk =   0.0069444
        k(   59) = (  -0.1604668   1.3896829  -0.0873521), wk =   0.0069444
        k(   60) = (  -0.1604668   1.2043918  -0.0582348), wk =   0.0069444
        k(   61) = (  -0.1604668   1.0191008  -0.0291174), wk =   0.0069444
        k(   62) = (  -0.1604668   0.8338097   0.0000000), wk =   0.0069444
        k(   63) = (  -0.1604668   0.6485187   0.0291174), wk =   0.0069444
        k(   64) = (  -0.1604668   0.4632276   0.0582348), wk =   0.0069444
        k(   65) = (  -0.3209335  -0.1852911   0.2038216), wk =   0.0034722
        k(   66) = (  -0.3209335  -0.3705821   0.2329390), wk =   0.0069444
        k(   67) = (  -0.3209335  -0.5558732   0.2620564), wk =   0.0069444
        k(   68) = (  -0.3209335   1.4823284  -0.0582348), wk =   0.0069444
        k(   69) = (  -0.3209335   1.2970374  -0.0291174), wk =   0.0069444
        k(   70) = (  -0.3209335   1.1117463   0.0000000), wk =   0.0069444
        k(   71) = (  -0.3209335   0.9264553   0.0291174), wk =   0.0069444
        k(   72) = (  -0.3209335   0.7411642   0.0582348), wk =   0.0069444
        k(   73) = (  -0.3209335   0.5558732   0.0873521), wk =   0.0069444
        k(   74) = (  -0.4814003  -0.2779366   0.2620564), wk =   0.0034722
        k(   75) = (  -0.4814003  -0.4632276   0.2911738), wk =   0.0069444
        k(   76) = (  -0.4814003   1.5749739  -0.0291174), wk =   0.0069444
        k(   77) = (  -0.4814003   1.3896829   0.0000000), wk =   0.0069444
        k(   78) = (  -0.4814003   1.2043918   0.0291174), wk =   0.0069444
        k(   79) = (  -0.4814003   1.0191008   0.0582348), wk =   0.0069444
        k(   80) = (  -0.4814003   0.8338097   0.0873521), wk =   0.0069444
        k(   81) = (  -0.4814003   0.6485187   0.1164695), wk =   0.0069444
        k(   82) = (  -0.6418670  -0.3705821   0.3202912), wk =   0.0034722
        k(   83) = (  -0.6418670   1.6676195   0.0000000), wk =   0.0069444
        k(   84) = (  -0.6418670   1.4823284   0.0291174), wk =   0.0069444
        k(   85) = (  -0.6418670   1.2970374   0.0582348), wk =   0.0069444
        k(   86) = (  -0.6418670   1.1117463   0.0873521), wk =   0.0069444
        k(   87) = (  -0.6418670   0.9264553   0.1164695), wk =   0.0069444
        k(   88) = (  -0.6418670   0.7411642   0.1455869), wk =   0.0069444
        k(   89) = (   1.1232673   0.6485187  -0.3202912), wk =   0.0034722
        k(   90) = (   1.1232673   0.4632276  -0.2911738), wk =   0.0069444
        k(   91) = (   1.1232673   0.2779366  -0.2620564), wk =   0.0069444
        k(   92) = (   1.1232673   0.0926455  -0.2329390), wk =   0.0069444
        k(   93) = (   1.1232673  -0.0926455  -0.2038216), wk =   0.0069444
        k(   94) = (   1.1232673  -0.2779366  -0.1747043), wk =   0.0034722
        k(   95) = (   0.9628005   0.5558732  -0.2620564), wk =   0.0034722
        k(   96) = (   0.9628005   0.3705821  -0.2329390), wk =   0.0069444
        k(   97) = (   0.9628005   0.1852911  -0.2038216), wk =   0.0069444
        k(   98) = (   0.9628005  -0.0000000  -0.1747043), wk =   0.0069444
        k(   99) = (   0.8023338   0.4632276  -0.2038216), wk =   0.0034722
        k(  100) = (   0.8023338   0.2779366  -0.1747043), wk =   0.0069444
        k(  101) = (   0.8023338   0.0926455  -0.1455869), wk =   0.0069444
        k(  102) = (   0.6418670   0.3705821  -0.1455869), wk =   0.0034722
        k(  103) = (   0.6418670   0.1852911  -0.1164695), wk =   0.0069444
        k(  104) = (   0.4814003   0.2779366  -0.0873521), wk =   0.0034722
        k(  105) = (   0.0000000   0.0000000   0.1747043), wk =   0.0011574
        k(  106) = (   0.0000000  -0.1852911   0.2038216), wk =   0.0034722
        k(  107) = (   0.0000000  -0.3705821   0.2329390), wk =   0.0034722
        k(  108) = (   0.0000000  -0.5558732   0.2620564), wk =   0.0034722
        k(  109) = (   0.0000000   1.4823284  -0.0582348), wk =   0.0034722
        k(  110) = (   0.0000000   1.2970374  -0.0291174), wk =   0.0034722
        k(  111) = (   0.0000000   1.1117463   0.0000000), wk =   0.0034722
        k(  112) = (   0.0000000   0.9264553   0.0291174), wk =   0.0034722
        k(  113) = (   0.0000000   0.7411642   0.0582348), wk =   0.0034722
        k(  114) = (  -0.1604668  -0.0926455   0.2329390), wk =   0.0034722
        k(  115) = (  -0.1604668  -0.2779366   0.2620564), wk =   0.0069444
        k(  116) = (  -0.1604668  -0.4632276   0.2911738), wk =   0.0069444
        k(  117) = (  -0.1604668   1.5749739  -0.0291174), wk =   0.0069444
        k(  118) = (  -0.1604668   1.3896829   0.0000000), wk =   0.0069444
        k(  119) = (  -0.1604668   1.2043918   0.0291174), wk =   0.0069444
        k(  120) = (  -0.1604668   1.0191008   0.0582348), wk =   0.0069444
        k(  121) = (  -0.1604668   0.8338097   0.0873521), wk =   0.0069444
        k(  122) = (  -0.3209335  -0.1852911   0.2911738), wk =   0.0034722
        k(  123) = (  -0.3209335  -0.3705821   0.3202912), wk =   0.0069444
        k(  124) = (  -0.3209335   1.6676195   0.0000000), wk =   0.0069444
        k(  125) = (  -0.3209335   1.4823284   0.0291174), wk =   0.0069444
        k(  126) = (  -0.3209335   1.2970374   0.0582348), wk =   0.0069444
        k(  127) = (  -0.3209335   1.1117463   0.0873521), wk =   0.0069444
        k(  128) = (  -0.3209335   0.9264553   0.1164695), wk =   0.0069444
        k(  129) = (  -0.4814003  -0.2779366   0.3494085), wk =   0.0034722
        k(  130) = (  -0.4814003   1.7602650   0.0291174), wk =   0.0069444
        k(  131) = (  -0.4814003   1.5749739   0.0582348), wk =   0.0069444
        k(  132) = (  -0.4814003   1.3896829   0.0873521), wk =   0.0069444
        k(  133) = (  -0.4814003   1.2043918   0.1164695), wk =   0.0069444
        k(  134) = (  -0.4814003   1.0191008   0.1455869), wk =   0.0069444
        k(  135) = (   1.2837341   0.7411642  -0.2911738), wk =   0.0034722
        k(  136) = (   1.2837341   0.5558732  -0.2620564), wk =   0.0069444
        k(  137) = (   1.2837341   0.3705821  -0.2329390), wk =   0.0069444
        k(  138) = (   1.2837341   0.1852911  -0.2038216), wk =   0.0069444
        k(  139) = (   1.2837341  -0.0000000  -0.1747043), wk =   0.0034722
        k(  140) = (   1.1232673   0.6485187  -0.2329390), wk =   0.0034722
        k(  141) = (   1.1232673   0.4632276  -0.2038216), wk =   0.0069444
        k(  142) = (   1.1232673   0.2779366  -0.1747043), wk =   0.0069444
        k(  143) = (   0.9628005   0.5558732  -0.1747043), wk =   0.0034722
        k(  144) = (   0.9628005   0.3705821  -0.1455869), wk =   0.0069444
        k(  145) = (   0.8023338   0.4632276  -0.1164695), wk =   0.0034722
        k(  146) = (   0.0000000   0.0000000   0.2620564), wk =   0.0011574
        k(  147) = (   0.0000000  -0.1852911   0.2911738), wk =   0.0034722
        k(  148) = (   0.0000000  -0.3705821   0.3202912), wk =   0.0034722
        k(  149) = (   0.0000000   1.6676195   0.0000000), wk =   0.0034722
        k(  150) = (   0.0000000   1.4823284   0.0291174), wk =   0.0034722
        k(  151) = (   0.0000000   1.2970374   0.0582348), wk =   0.0034722
        k(  152) = (   0.0000000   1.1117463   0.0873521), wk =   0.0034722
        k(  153) = (  -0.1604668  -0.0926455   0.3202912), wk =   0.0034722
        k(  154) = (  -0.1604668  -0.2779366   0.3494085), wk =   0.0069444
        k(  155) = (  -0.1604668   1.7602650   0.0291174), wk =   0.0069444
        k(  156) = (  -0.1604668   1.5749739   0.0582348), wk =   0.0069444
        k(  157) = (  -0.1604668   1.3896829   0.0873521), wk =   0.0069444
        k(  158) = (  -0.1604668   1.2043918   0.1164695), wk =   0.0069444
        k(  159) = (  -0.3209335  -0.1852911   0.3785259), wk =   0.0034722
        k(  160) = (  -0.3209335   1.8529105   0.0582348), wk =   0.0069444
        k(  161) = (  -0.3209335   1.6676195   0.0873521), wk =   0.0069444
        k(  162) = (  -0.3209335   1.4823284   0.1164695), wk =   0.0069444
        k(  163) = (  -0.3209335   1.2970374   0.1455869), wk =   0.0069444
        k(  164) = (   1.4442008   0.8338097  -0.2620564), wk =   0.0034722
        k(  165) = (   1.4442008   0.6485187  -0.2329390), wk =   0.0069444
        k(  166) = (   1.4442008   0.4632276  -0.2038216), wk =   0.0069444
        k(  167) = (   1.4442008   0.2779366  -0.1747043), wk =   0.0034722
        k(  168) = (   1.2837341   0.7411642  -0.2038216), wk =   0.0034722
        k(  169) = (   1.2837341   0.5558732  -0.1747043), wk =   0.0069444
        k(  170) = (   1.1232673   0.6485187  -0.1455869), wk =   0.0034722
        k(  171) = (   0.0000000   0.0000000   0.3494085), wk =   0.0011574
        k(  172) = (   0.0000000  -0.1852911   0.3785259), wk =   0.0034722
        k(  173) = (   0.0000000   1.8529105   0.0582348), wk =   0.0034722
        k(  174) = (   0.0000000   1.6676195   0.0873521), wk =   0.0034722
        k(  175) = (   0.0000000   1.4823284   0.1164695), wk =   0.0034722
        k(  176) = (  -0.1604668  -0.0926455   0.4076433), wk =   0.0034722
        k(  177) = (  -0.1604668   1.9455560   0.0873521), wk =   0.0069444
        k(  178) = (  -0.1604668   1.7602650   0.1164695), wk =   0.0069444
        k(  179) = (  -0.1604668   1.5749739   0.1455869), wk =   0.0069444
        k(  180) = (   1.6046676   0.9264553  -0.2329390), wk =   0.0034722
        k(  181) = (   1.6046676   0.7411642  -0.2038216), wk =   0.0069444
        k(  182) = (   1.6046676   0.5558732  -0.1747043), wk =   0.0034722
        k(  183) = (   1.4442008   0.8338097  -0.1747043), wk =   0.0034722
        k(  184) = (   0.0000000  -0.0000000   0.4367607), wk =   0.0011574
        k(  185) = (   0.0000000   2.0382016   0.1164695), wk =   0.0034722
        k(  186) = (   0.0000000   1.8529105   0.1455869), wk =   0.0034722
        k(  187) = (   1.7651343   1.0191008  -0.2038216), wk =   0.0034722
        k(  188) = (   1.7651343   0.8338097  -0.1747043), wk =   0.0034722
        k(  189) = (  -0.0000000   0.0000000  -0.5241128), wk =   0.0005787

                       cryst. coord.
        k(    1) = (   0.0000000   0.0000000   0.0000000), wk =   0.0005787
        k(    2) = (  -0.0000000  -0.0000000   0.0833333), wk =   0.0034722
        k(    3) = (  -0.0000000  -0.0000000   0.1666667), wk =   0.0034722
        k(    4) = (  -0.0000000  -0.0000000   0.2500000), wk =   0.0034722
        k(    5) = (  -0.0000000  -0.0000000   0.3333333), wk =   0.0034722
        k(    6) = (   0.0000000   0.0000000   0.4166667), wk =   0.0034722
        k(    7) = (   0.0000000   0.0000000  -0.5000000), wk =   0.0017361
        k(    8) = (  -0.0000000   0.0833333   0.0833333), wk =   0.0034722
        k(    9) = (   0.0000000   0.0833333   0.1666667), wk =   0.0069444
        k(   10) = (   0.0000000   0.0833333   0.2500000), wk =   0.0069444
        k(   11) = (  -0.0000000   0.0833333   0.3333333), wk =   0.0069444
        k(   12) = (  -0.0000000   0.0833333   0.4166667), wk =   0.0069444
        k(   13) = (   0.0000000   0.0833333  -0.5000000), wk =   0.0069444
        k(   14) = (   0.0000000   0.0833333  -0.4166667), wk =   0.0069444
        k(   15) = (  -0.0000000   0.0833333  -0.3333333), wk =   0.0069444
        k(   16) = (  -0.0000000   0.0833333  -0.2500000), wk =   0.0069444
        k(   17) = (   0.0000000   0.0833333  -0.1666667), wk =   0.0069444
        k(   18) = (  -0.0000000   0.0833333  -0.0833333), wk =   0.0034722
        k(   19) = (  -0.0000000   0.1666667   0.1666667), wk =   0.0034722
        k(   20) = (  -0.0000000   0.1666667   0.2500000), wk =   0.0069444
        k(   21) = (   0.0000000   0.1666667   0.3333333), wk =   0.0069444
        k(   22) = (  -0.0000000   0.1666667   0.4166667), wk =   0.0069444
        k(   23) = (  -0.0000000   0.1666667  -0.5000000), wk =   0.0069444
        k(   24) = (   0.0000000   0.1666667  -0.4166667), wk =   0.0069444
        k(   25) = (   0.0000000   0.1666667  -0.3333333), wk =   0.0069444
        k(   26) = (   0.0000000   0.1666667  -0.2500000), wk =   0.0069444
        k(   27) = (   0.0000000   0.1666667  -0.1666667), wk =   0.0034722
        k(   28) = (   0.0000000   0.2500000   0.2500000), wk =   0.0034722
        k(   29) = (  -0.0000000   0.2500000   0.3333333), wk =   0.0069444
        k(   30) = (  -0.0000000   0.2500000   0.4166667), wk =   0.0069444
        k(   31) = (   0.0000000   0.2500000  -0.5000000), wk =   0.0069444
        k(   32) = (   0.0000000   0.2500000  -0.4166667), wk =   0.0069444
        k(   33) = (   0.0000000   0.2500000  -0.3333333), wk =   0.0069444
        k(   34) = (   0.0000000   0.2500000  -0.2500000), wk =   0.0034722
        k(   35) = (  -0.0000000   0.3333333   0.3333333), wk =   0.0034722
        k(   36) = (  -0.0000000   0.3333333   0.4166667), wk =   0.0069444
        k(   37) = (   0.0000000   0.3333333  -0.5000000), wk =   0.0069444
        k(   38) = (   0.0000000   0.3333333  -0.4166667), wk =   0.0069444
        k(   39) = (   0.0000000   0.3333333  -0.3333333), wk =   0.0034722
        k(   40) = (   0.0000000   0.4166667   0.4166667), wk =   0.0034722
        k(   41) = (   0.0000000   0.4166667  -0.5000000), wk =   0.0069444
        k(   42) = (   0.0000000   0.4166667  -0.4166667), wk =   0.0034722
        k(   43) = (  -0.0000000  -0.5000000  -0.5000000), wk =   0.0017361
        k(   44) = (   0.0833333   0.0833333   0.0833333), wk =   0.0011574
        k(   45) = (   0.0833333   0.0833333   0.1666667), wk =   0.0034722
        k(   46) = (   0.0833333   0.0833333   0.2500000), wk =   0.0034722
        k(   47) = (   0.0833333   0.0833333   0.3333333), wk =   0.0034722
        k(   48) = (   0.0833333   0.0833333   0.4166667), wk =   0.0034722
        k(   49) = (   0.0833333   0.0833333  -0.5000000), wk =   0.0034722
        k(   50) = (   0.0833333   0.0833333  -0.4166667), wk =   0.0034722
        k(   51) = (   0.0833333   0.0833333  -0.3333333), wk =   0.0034722
        k(   52) = (   0.0833333   0.0833333  -0.2500000), wk =   0.0034722
        k(   53) = (   0.0833333   0.0833333  -0.1666667), wk =   0.0034722
        k(   54) = (   0.0833333   0.0833333  -0.0833333), wk =   0.0034722
        k(   55) = (   0.0833333   0.1666667   0.1666667), wk =   0.0034722
        k(   56) = (   0.0833333   0.1666667   0.2500000), wk =   0.0069444
        k(   57) = (   0.0833333   0.1666667   0.3333333), wk =   0.0069444
        k(   58) = (   0.0833333   0.1666667   0.4166667), wk =   0.0069444
        k(   59) = (   0.0833333   0.1666667  -0.5000000), wk =   0.0069444
        k(   60) = (   0.0833333   0.1666667  -0.4166667), wk =   0.0069444
        k(   61) = (   0.0833333   0.1666667  -0.3333333), wk =   0.0069444
        k(   62) = (   0.0833333   0.1666667  -0.2500000), wk =   0.0069444
        k(   63) = (   0.0833333   0.1666667  -0.1666667), wk =   0.0069444
        k(   64) = (   0.0833333   0.1666667  -0.0833333), wk =   0.0069444
        k(   65) = (   0.0833333   0.2500000   0.2500000), wk =   0.0034722
        k(   66) = (   0.0833333   0.2500000   0.3333333), wk =   0.0069444
        k(   67) = (   0.0833333   0.2500000   0.4166667), wk =   0.0069444
        k(   68) = (   0.0833333   0.2500000  -0.5000000), wk =   0.0069444
        k(   69) = (   0.0833333   0.2500000  -0.4166667), wk =   0.0069444
        k(   70) = (   0.0833333   0.2500000  -0.3333333), wk =   0.0069444
        k(   71) = (   0.0833333   0.2500000  -0.2500000), wk =   0.0069444
        k(   72) = (   0.0833333   0.2500000  -0.1666667), wk =   0.0069444
        k(   73) = (   0.0833333   0.2500000  -0.0833333), wk =   0.0069444
        k(   74) = (   0.0833333   0.3333333   0.3333333), wk =   0.0034722
        k(   75) = (   0.0833333   0.3333333   0.4166667), wk =   0.0069444
        k(   76) = (   0.0833333   0.3333333  -0.5000000), wk =   0.0069444
        k(   77) = (   0.0833333   0.3333333  -0.4166667), wk =   0.0069444
        k(   78) = (   0.0833333   0.3333333  -0.3333333), wk =   0.0069444
        k(   79) = (   0.0833333   0.3333333  -0.2500000), wk =   0.0069444
        k(   80) = (   0.0833333   0.3333333  -0.1666667), wk =   0.0069444
        k(   81) = (   0.0833333   0.3333333  -0.0833333), wk =   0.0069444
        k(   82) = (   0.0833333   0.4166667   0.4166667), wk =   0.0034722
        k(   83) = (   0.0833333   0.4166667  -0.5000000), wk =   0.0069444
        k(   84) = (   0.0833333   0.4166667  -0.4166667), wk =   0.0069444
        k(   85) = (   0.0833333   0.4166667  -0.3333333), wk =   0.0069444
        k(   86) = (   0.0833333   0.4166667  -0.2500000), wk =   0.0069444
        k(   87) = (   0.0833333   0.4166667  -0.1666667), wk =   0.0069444
        k(   88) = (   0.0833333   0.4166667  -0.0833333), wk =   0.0069444
        k(   89) = (   0.0833333  -0.5000000  -0.5000000), wk =   0.0034722
        k(   90) = (   0.0833333  -0.5000000  -0.4166667), wk =   0.0069444
        k(   91) = (   0.0833333  -0.5000000  -0.3333333), wk =   0.0069444
        k(   92) = (   0.0833333  -0.5000000  -0.2500000), wk =   0.0069444
        k(   93) = (   0.0833333  -0.5000000  -0.1666667), wk =   0.0069444
        k(   94) = (   0.0833333  -0.5000000  -0.0833333), wk =   0.0034722
        k(   95) = (   0.0833333  -0.4166667  -0.4166667), wk =   0.0034722
        k(   96) = (   0.0833333  -0.4166667  -0.3333333), wk =   0.0069444
        k(   97) = (   0.0833333  -0.4166667  -0.2500000), wk =   0.0069444
        k(   98) = (   0.0833333  -0.4166667  -0.1666667), wk =   0.0069444
        k(   99) = (   0.0833333  -0.3333333  -0.3333333), wk =   0.0034722
        k(  100) = (   0.0833333  -0.3333333  -0.2500000), wk =   0.0069444
        k(  101) = (   0.0833333  -0.3333333  -0.1666667), wk =   0.0069444
        k(  102) = (   0.0833333  -0.2500000  -0.2500000), wk =   0.0034722
        k(  103) = (   0.0833333  -0.2500000  -0.1666667), wk =   0.0069444
        k(  104) = (   0.0833333  -0.1666667  -0.1666667), wk =   0.0034722
        k(  105) = (   0.1666667   0.1666667   0.1666667), wk =   0.0011574
        k(  106) = (   0.1666667   0.1666667   0.2500000), wk =   0.0034722
        k(  107) = (   0.1666667   0.1666667   0.3333333), wk =   0.0034722
        k(  108) = (   0.1666667   0.1666667   0.4166667), wk =   0.0034722
        k(  109) = (   0.1666667   0.1666667  -0.5000000), wk =   0.0034722
        k(  110) = (   0.1666667   0.1666667  -0.4166667), wk =   0.0034722
        k(  111) = (   0.1666667   0.1666667  -0.3333333), wk =   0.0034722
        k(  112) = (   0.1666667   0.1666667  -0.2500000), wk =   0.0034722
        k(  113) = (   0.1666667   0.1666667  -0.1666667), wk =   0.0034722
        k(  114) = (   0.1666667   0.2500000   0.2500000), wk =   0.0034722
        k(  115) = (   0.1666667   0.2500000   0.3333333), wk =   0.0069444
        k(  116) = (   0.1666667   0.2500000   0.4166667), wk =   0.0069444
        k(  117) = (   0.1666667   0.2500000  -0.5000000), wk =   0.0069444
        k(  118) = (   0.1666667   0.2500000  -0.4166667), wk =   0.0069444
        k(  119) = (   0.1666667   0.2500000  -0.3333333), wk =   0.0069444
        k(  120) = (   0.1666667   0.2500000  -0.2500000), wk =   0.0069444
        k(  121) = (   0.1666667   0.2500000  -0.1666667), wk =   0.0069444
        k(  122) = (   0.1666667   0.3333333   0.3333333), wk =   0.0034722
        k(  123) = (   0.1666667   0.3333333   0.4166667), wk =   0.0069444
        k(  124) = (   0.1666667   0.3333333  -0.5000000), wk =   0.0069444
        k(  125) = (   0.1666667   0.3333333  -0.4166667), wk =   0.0069444
        k(  126) = (   0.1666667   0.3333333  -0.3333333), wk =   0.0069444
        k(  127) = (   0.1666667   0.3333333  -0.2500000), wk =   0.0069444
        k(  128) = (   0.1666667   0.3333333  -0.1666667), wk =   0.0069444
        k(  129) = (   0.1666667   0.4166667   0.4166667), wk =   0.0034722
        k(  130) = (   0.1666667   0.4166667  -0.5000000), wk =   0.0069444
        k(  131) = (   0.1666667   0.4166667  -0.4166667), wk =   0.0069444
        k(  132) = (   0.1666667   0.4166667  -0.3333333), wk =   0.0069444
        k(  133) = (   0.1666667   0.4166667  -0.2500000), wk =   0.0069444
        k(  134) = (   0.1666667   0.4166667  -0.1666667), wk =   0.0069444
        k(  135) = (   0.1666667  -0.5000000  -0.5000000), wk =   0.0034722
        k(  136) = (   0.1666667  -0.5000000  -0.4166667), wk =   0.0069444
        k(  137) = (   0.1666667  -0.5000000  -0.3333333), wk =   0.0069444
        k(  138) = (   0.1666667  -0.5000000  -0.2500000), wk =   0.0069444
        k(  139) = (   0.1666667  -0.5000000  -0.1666667), wk =   0.0034722
        k(  140) = (   0.1666667  -0.4166667  -0.4166667), wk =   0.0034722
        k(  141) = (   0.1666667  -0.4166667  -0.3333333), wk =   0.0069444
        k(  142) = (   0.1666667  -0.4166667  -0.2500000), wk =   0.0069444
        k(  143) = (   0.1666667  -0.3333333  -0.3333333), wk =   0.0034722
        k(  144) = (   0.1666667  -0.3333333  -0.2500000), wk =   0.0069444
        k(  145) = (   0.1666667  -0.2500000  -0.2500000), wk =   0.0034722
        k(  146) = (   0.2500000   0.2500000   0.2500000), wk =   0.0011574
        k(  147) = (   0.2500000   0.2500000   0.3333333), wk =   0.0034722
        k(  148) = (   0.2500000   0.2500000   0.4166667), wk =   0.0034722
        k(  149) = (   0.2500000   0.2500000  -0.5000000), wk =   0.0034722
        k(  150) = (   0.2500000   0.2500000  -0.4166667), wk =   0.0034722
        k(  151) = (   0.2500000   0.2500000  -0.3333333), wk =   0.0034722
        k(  152) = (   0.2500000   0.2500000  -0.2500000), wk =   0.0034722
        k(  153) = (   0.2500000   0.3333333   0.3333333), wk =   0.0034722
        k(  154) = (   0.2500000   0.3333333   0.4166667), wk =   0.0069444
        k(  155) = (   0.2500000   0.3333333  -0.5000000), wk =   0.0069444
        k(  156) = (   0.2500000   0.3333333  -0.4166667), wk =   0.0069444
        k(  157) = (   0.2500000   0.3333333  -0.3333333), wk =   0.0069444
        k(  158) = (   0.2500000   0.3333333  -0.2500000), wk =   0.0069444
        k(  159) = (   0.2500000   0.4166667   0.4166667), wk =   0.0034722
        k(  160) = (   0.2500000   0.4166667  -0.5000000), wk =   0.0069444
        k(  161) = (   0.2500000   0.4166667  -0.4166667), wk =   0.0069444
        k(  162) = (   0.2500000   0.4166667  -0.3333333), wk =   0.0069444
        k(  163) = (   0.2500000   0.4166667  -0.2500000), wk =   0.0069444
        k(  164) = (   0.2500000  -0.5000000  -0.5000000), wk =   0.0034722
        k(  165) = (   0.2500000  -0.5000000  -0.4166667), wk =   0.0069444
        k(  166) = (   0.2500000  -0.5000000  -0.3333333), wk =   0.0069444
        k(  167) = (   0.2500000  -0.5000000  -0.2500000), wk =   0.0034722
        k(  168) = (   0.2500000  -0.4166667  -0.4166667), wk =   0.0034722
        k(  169) = (   0.2500000  -0.4166667  -0.3333333), wk =   0.0069444
        k(  170) = (   0.2500000  -0.3333333  -0.3333333), wk =   0.0034722
        k(  171) = (   0.3333333   0.3333333   0.3333333), wk =   0.0011574
        k(  172) = (   0.3333333   0.3333333   0.4166667), wk =   0.0034722
        k(  173) = (   0.3333333   0.3333333  -0.5000000), wk =   0.0034722
        k(  174) = (   0.3333333   0.3333333  -0.4166667), wk =   0.0034722
        k(  175) = (   0.3333333   0.3333333  -0.3333333), wk =   0.0034722
        k(  176) = (   0.3333333   0.4166667   0.4166667), wk =   0.0034722
        k(  177) = (   0.3333333   0.4166667  -0.5000000), wk =   0.0069444
        k(  178) = (   0.3333333   0.4166667  -0.4166667), wk =   0.0069444
        k(  179) = (   0.3333333   0.4166667  -0.3333333), wk =   0.0069444
        k(  180) = (   0.3333333  -0.5000000  -0.5000000), wk =   0.0034722
        k(  181) = (   0.3333333  -0.5000000  -0.4166667), wk =   0.0069444
        k(  182) = (   0.3333333  -0.5000000  -0.3333333), wk =   0.0034722
        k(  183) = (   0.3333333  -0.4166667  -0.4166667), wk =   0.0034722
        k(  184) = (   0.4166667   0.4166667   0.4166667), wk =   0.0011574
        k(  185) = (   0.4166667   0.4166667  -0.5000000), wk =   0.0034722
        k(  186) = (   0.4166667   0.4166667  -0.4166667), wk =   0.0034722
        k(  187) = (   0.4166667  -0.5000000  -0.5000000), wk =   0.0034722
        k(  188) = (   0.4166667  -0.5000000  -0.4166667), wk =   0.0034722
        k(  189) = (  -0.5000000  -0.5000000  -0.5000000), wk =   0.0005787

     Dense  grid:   131535 G-vectors     FFT dimensions: ( 108, 108, 108)

     Smooth grid:    46493 G-vectors     FFT dimensions: (  75,  75,  75)

     Dynamical RAM for                 wfc:       0.27 MB

     Dynamical RAM for     wfc (w. buffer):      14.64 MB

     Dynamical RAM for           str. fact:       0.75 MB

     Dynamical RAM for           local pot:       0.00 MB

     Dynamical RAM for          nlocal pot:       0.71 MB

     Dynamical RAM for                qrad:       7.03 MB

     Dynamical RAM for          rho,v,vnew:       8.98 MB

     Dynamical RAM for               rhoin:       2.99 MB

     Dynamical RAM for            rho*nmix:       8.03 MB

     Dynamical RAM for           G-vectors:       0.99 MB

     Dynamical RAM for          h,s,v(r/c):       0.11 MB

     Dynamical RAM for          <psi|beta>:       0.02 MB

     Dynamical RAM for                 phi:       1.06 MB

     Dynamical RAM for                hphi:       1.06 MB

     Dynamical RAM for                sphi:       1.06 MB

     Dynamical RAM for                hpsi:       0.27 MB

     Dynamical RAM for                spsi:       0.27 MB

     Dynamical RAM for                kpsi:       0.27 MB

     Dynamical RAM for               hkpsi:       0.27 MB

     Dynamical RAM for               skpsi:       0.27 MB

     Dynamical RAM for      wfcinit/wfcrot:       0.55 MB

     Dynamical RAM for           addusdens:       7.88 MB

     Dynamical RAM for          addusforce:       7.76 MB

     Dynamical RAM for         addusstress:       8.15 MB

     Estimated static dynamical RAM per process >      44.57 MB

     Estimated max dynamical RAM per process >      60.75 MB

     Estimated total dynamical RAM >       2.95 GB
     Generating pointlists ...
     new r_m :   0.1456 (alat units)  2.1740 (a.u.) for type    1
     new r_m :   0.1722 (alat units)  2.5711 (a.u.) for type    2
     new r_m :   0.1456 (alat units)  2.1740 (a.u.) for type    3

     The initial density is read from file :
     ./out/aiida.save/charge-density


     starting charge      32.0023, renormalised to      32.0000

     negative rho (up, down):  8.353E-01 1.089E-02
     Starting wfcs are   18 randomized atomic wfcs +    6 random wfcs
     Checking if some PAW data can be deallocated... 
       PAW data deallocated on   28 nodes for type:  1

     total cpu time spent up to now is        3.9 secs

     per-process dynamical memory:    59.3 Mb

     Self-consistent Calculation

     iteration #  1     ecut=    60.00 Ry     beta= 0.40
     ParO style diagonalization

---- Real-time Memory Report at c_bands before calling an iterative solver
           105 MiB given to the printing process from OS
            59 MiB allocation reported by mallinfo(arena+hblkhd)
        487186 MiB available memory on the node where the printing process lives
------------------
     ethr =  1.00E-05,  avg # of iterations = 18.0

     negative rho (up, down):  8.665E-01 1.075E-02

     total cpu time spent up to now is       41.7 secs

     WARNING: integrated charge=    32.00092401, expected=    32.00000000

     total energy              =    -913.19711160 Ry
     estimated scf accuracy    <       0.00664271 Ry

     total magnetization       =    -0.00 Bohr mag/cell
     absolute magnetization    =     2.35 Bohr mag/cell

     iteration #  2     ecut=    60.00 Ry     beta= 0.40
     RMM-DIIS diagonalization

---- Real-time Memory Report at c_bands before calling an iterative solver
           135 MiB given to the printing process from OS
            70 MiB allocation reported by mallinfo(arena+hblkhd)
        485779 MiB available memory on the node where the printing process lives
------------------
     ethr =  2.08E-05,  avg # of iterations =  2.6

     negative rho (up, down):  8.074E-01 1.258E-02

     total cpu time spent up to now is       47.6 secs

     WARNING: integrated charge=    32.00013591, expected=    32.00000000

     total energy              =    -913.19450904 Ry
     estimated scf accuracy    <       0.01185368 Ry

     total magnetization       =    -0.00 Bohr mag/cell
     absolute magnetization    =     2.51 Bohr mag/cell

     iteration #  3     ecut=    60.00 Ry     beta= 0.40
     RMM-DIIS diagonalization

---- Real-time Memory Report at c_bands before calling an iterative solver
           135 MiB given to the printing process from OS
            70 MiB allocation reported by mallinfo(arena+hblkhd)
        485765 MiB available memory on the node where the printing process lives
------------------
     ethr =  2.08E-05,  avg # of iterations =  2.9

     negative rho (up, down):  8.236E-01 1.067E-02

     total cpu time spent up to now is       54.8 secs

     WARNING: integrated charge=    32.00086710, expected=    32.00000000

     total energy              =    -913.19662511 Ry
     estimated scf accuracy    <       0.06364587 Ry

     total magnetization       =    -0.00 Bohr mag/cell
     absolute magnetization    =     1.65 Bohr mag/cell

     iteration #  4     ecut=    60.00 Ry     beta= 0.40
     RMM-DIIS diagonalization

---- Real-time Memory Report at c_bands before calling an iterative solver
           137 MiB given to the printing process from OS
            73 MiB allocation reported by mallinfo(arena+hblkhd)
        485754 MiB available memory on the node where the printing process lives
------------------
     ethr =  2.08E-05,  avg # of iterations =  2.7

     negative rho (up, down):  8.350E-01 1.047E-02

     total cpu time spent up to now is       61.1 secs

     WARNING: integrated charge=    32.00128809, expected=    32.00000000

     total energy              =    -913.19699837 Ry
     estimated scf accuracy    <       0.01697831 Ry

     total magnetization       =    -0.00 Bohr mag/cell
     absolute magnetization    =     1.89 Bohr mag/cell

     iteration #  5     ecut=    60.00 Ry     beta= 0.40
     RMM-DIIS diagonalization

---- Real-time Memory Report at c_bands before calling an iterative solver
           137 MiB given to the printing process from OS
            71 MiB allocation reported by mallinfo(arena+hblkhd)
        485741 MiB available memory on the node where the printing process lives
------------------
     ethr =  2.08E-05,  avg # of iterations =  2.7

     negative rho (up, down):  8.297E-01 1.082E-02

     total cpu time spent up to now is       67.5 secs

     WARNING: integrated charge=    32.00095512, expected=    32.00000000

     total energy              =    -913.19729393 Ry
     estimated scf accuracy    <       0.00008737 Ry

     total magnetization       =    -0.00 Bohr mag/cell
     absolute magnetization    =     2.18 Bohr mag/cell

     iteration #  6     ecut=    60.00 Ry     beta= 0.40
     ParO style diagonalization

---- Real-time Memory Report at c_bands before calling an iterative solver
           137 MiB given to the printing process from OS
            72 MiB allocation reported by mallinfo(arena+hblkhd)
        485731 MiB available memory on the node where the printing process lives
------------------
     ethr =  2.73E-07,  avg # of iterations =  4.0

     negative rho (up, down):  8.271E-01 1.091E-02

     total cpu time spent up to now is       78.6 secs

     WARNING: integrated charge=    32.00108849, expected=    32.00000000

     total energy              =    -913.19728341 Ry
     estimated scf accuracy    <       0.00333841 Ry

     total magnetization       =    -0.00 Bohr mag/cell
     absolute magnetization    =     2.28 Bohr mag/cell

     iteration #  7     ecut=    60.00 Ry     beta= 0.40
     RMM-DIIS diagonalization

---- Real-time Memory Report at c_bands before calling an iterative solver
           138 MiB given to the printing process from OS
            72 MiB allocation reported by mallinfo(arena+hblkhd)
        485722 MiB available memory on the node where the printing process lives
------------------
     ethr =  2.73E-07,  avg # of iterations =  2.9

     negative rho (up, down):  8.282E-01 1.096E-02

     total cpu time spent up to now is       85.9 secs

     WARNING: integrated charge=    32.00167188, expected=    32.00000000

     total energy              =    -913.19734307 Ry
     estimated scf accuracy    <       0.00003318 Ry

     total magnetization       =    -0.00 Bohr mag/cell
     absolute magnetization    =     2.17 Bohr mag/cell

     iteration #  8     ecut=    60.00 Ry     beta= 0.40
     RMM-DIIS diagonalization

---- Real-time Memory Report at c_bands before calling an iterative solver
           138 MiB given to the printing process from OS
            72 MiB allocation reported by mallinfo(arena+hblkhd)
        485717 MiB available memory on the node where the printing process lives
------------------
     ethr =  1.04E-07,  avg # of iterations =  2.8

     negative rho (up, down):  8.196E-01 1.145E-02

     total cpu time spent up to now is       92.8 secs

     WARNING: integrated charge=    32.00180789, expected=    32.00000000

     total energy              =    -913.19759592 Ry
     estimated scf accuracy    <       0.00001518 Ry

     total magnetization       =    -0.00 Bohr mag/cell
     absolute magnetization    =     2.17 Bohr mag/cell

     iteration #  9     ecut=    60.00 Ry     beta= 0.40
     RMM-DIIS diagonalization

---- Real-time Memory Report at c_bands before calling an iterative solver
           139 MiB given to the printing process from OS
            73 MiB allocation reported by mallinfo(arena+hblkhd)
        485703 MiB available memory on the node where the printing process lives
------------------
     ethr =  4.74E-08,  avg # of iterations =  3.6

     negative rho (up, down):  8.233E-01 1.197E-02

     total cpu time spent up to now is      101.9 secs

     WARNING: integrated charge=    32.00224345, expected=    32.00000000

     total energy              =    -913.19754994 Ry
     estimated scf accuracy    <       0.00313126 Ry

     total magnetization       =    -0.00 Bohr mag/cell
     absolute magnetization    =     2.01 Bohr mag/cell

     iteration # 10     ecut=    60.00 Ry     beta= 0.40
     RMM-DIIS diagonalization

---- Real-time Memory Report at c_bands before calling an iterative solver
           141 MiB given to the printing process from OS
            73 MiB allocation reported by mallinfo(arena+hblkhd)
        485694 MiB available memory on the node where the printing process lives
------------------
     ethr =  4.74E-08,  avg # of iterations =  3.4

     negative rho (up, down):  8.266E-01 1.177E-02

     total cpu time spent up to now is      110.2 secs

     WARNING: integrated charge=    32.00225094, expected=    32.00000000

     total energy              =    -913.19731916 Ry
     estimated scf accuracy    <       0.00841673 Ry

     total magnetization       =    -0.00 Bohr mag/cell
     absolute magnetization    =     1.97 Bohr mag/cell

     iteration # 11     ecut=    60.00 Ry     beta= 0.40
     ParO style diagonalization

---- Real-time Memory Report at c_bands before calling an iterative solver
           141 MiB given to the printing process from OS
            73 MiB allocation reported by mallinfo(arena+hblkhd)
        485691 MiB available memory on the node where the printing process lives
------------------
     ethr =  4.74E-08,  avg # of iterations =  5.8

     negative rho (up, down):  8.221E-01 1.122E-02

     total cpu time spent up to now is      126.1 secs

     WARNING: integrated charge=    32.00217044, expected=    32.00000000

     total energy              =    -913.19760727 Ry
     estimated scf accuracy    <       0.00318324 Ry

     total magnetization       =    -0.00 Bohr mag/cell
     absolute magnetization    =     2.07 Bohr mag/cell

     iteration # 12     ecut=    60.00 Ry     beta= 0.40
     RMM-DIIS diagonalization

---- Real-time Memory Report at c_bands before calling an iterative solver
           141 MiB given to the printing process from OS
            73 MiB allocation reported by mallinfo(arena+hblkhd)
        485679 MiB available memory on the node where the printing process lives
------------------
     ethr =  4.74E-08,  avg # of iterations =  3.4

     negative rho (up, down):  8.242E-01 1.212E-02

     total cpu time spent up to now is      134.4 secs

     WARNING: integrated charge=    32.00206555, expected=    32.00000000

     total energy              =    -913.19754781 Ry
     estimated scf accuracy    <       0.00709598 Ry

     total magnetization       =    -0.00 Bohr mag/cell
     absolute magnetization    =     1.97 Bohr mag/cell

     iteration # 13     ecut=    60.00 Ry     beta= 0.40
     RMM-DIIS diagonalization

---- Real-time Memory Report at c_bands before calling an iterative solver
           141 MiB given to the printing process from OS
            73 MiB allocation reported by mallinfo(arena+hblkhd)
        485677 MiB available memory on the node where the printing process lives
------------------
     ethr =  4.74E-08,  avg # of iterations =  2.9

     negative rho (up, down):  8.224E-01 1.200E-02

     total cpu time spent up to now is      141.4 secs

     WARNING: integrated charge=    32.00205292, expected=    32.00000000

     total energy              =    -913.19765431 Ry
     estimated scf accuracy    <       0.00823413 Ry

     total magnetization       =    -0.00 Bohr mag/cell
     absolute magnetization    =     1.97 Bohr mag/cell

     iteration # 14     ecut=    60.00 Ry     beta= 0.40
     RMM-DIIS diagonalization

---- Real-time Memory Report at c_bands before calling an iterative solver
           141 MiB given to the printing process from OS
            73 MiB allocation reported by mallinfo(arena+hblkhd)
        485671 MiB available memory on the node where the printing process lives
------------------
     ethr =  4.74E-08,  avg # of iterations =  3.0

     negative rho (up, down):  8.272E-01 1.117E-02

     total cpu time spent up to now is      148.4 secs

     WARNING: integrated charge=    32.00201304, expected=    32.00000000

     total energy              =    -913.19727290 Ry
     estimated scf accuracy    <       0.00908127 Ry

     total magnetization       =    -0.00 Bohr mag/cell
     absolute magnetization    =     1.94 Bohr mag/cell

     iteration # 15     ecut=    60.00 Ry     beta= 0.40
     RMM-DIIS diagonalization

---- Real-time Memory Report at c_bands before calling an iterative solver
           141 MiB given to the printing process from OS
            73 MiB allocation reported by mallinfo(arena+hblkhd)
        485667 MiB available memory on the node where the printing process lives
------------------
     ethr =  4.74E-08,  avg # of iterations =  3.2

     negative rho (up, down):  8.282E-01 1.100E-02

     total cpu time spent up to now is      156.5 secs

     WARNING: integrated charge=    32.00213744, expected=    32.00000000

     total energy              =    -913.19729216 Ry
     estimated scf accuracy    <       0.00248414 Ry

     total magnetization       =    -0.00 Bohr mag/cell
     absolute magnetization    =     2.06 Bohr mag/cell

     iteration # 16     ecut=    60.00 Ry     beta= 0.40
     ParO style diagonalization

---- Real-time Memory Report at c_bands before calling an iterative solver
           141 MiB given to the printing process from OS
            73 MiB allocation reported by mallinfo(arena+hblkhd)
        485666 MiB available memory on the node where the printing process lives
------------------
     ethr =  4.74E-08,  avg # of iterations =  5.0

     negative rho (up, down):  8.255E-01 1.120E-02

     total cpu time spent up to now is      171.6 secs

     WARNING: integrated charge=    32.00223783, expected=    32.00000000

     total energy              =    -913.19737769 Ry
     estimated scf accuracy    <       0.00010944 Ry

     total magnetization       =    -0.00 Bohr mag/cell
     absolute magnetization    =     2.19 Bohr mag/cell

     iteration # 17     ecut=    60.00 Ry     beta= 0.40
     RMM-DIIS diagonalization

---- Real-time Memory Report at c_bands before calling an iterative solver
           141 MiB given to the printing process from OS
            73 MiB allocation reported by mallinfo(arena+hblkhd)
        485658 MiB available memory on the node where the printing process lives
------------------
     ethr =  4.74E-08,  avg # of iterations =  3.2

     negative rho (up, down):  8.261E-01 1.107E-02

     total cpu time spent up to now is      179.8 secs

     WARNING: integrated charge=    32.00226852, expected=    32.00000000

     total energy              =    -913.19740791 Ry
     estimated scf accuracy    <       0.00123149 Ry

     total magnetization       =    -0.00 Bohr mag/cell
     absolute magnetization    =     2.09 Bohr mag/cell

     iteration # 18     ecut=    60.00 Ry     beta= 0.40
     RMM-DIIS diagonalization

---- Real-time Memory Report at c_bands before calling an iterative solver
           141 MiB given to the printing process from OS
            73 MiB allocation reported by mallinfo(arena+hblkhd)
        485657 MiB available memory on the node where the printing process lives
------------------
     ethr =  4.74E-08,  avg # of iterations =  2.9

     negative rho (up, down):  8.266E-01 1.091E-02

     total cpu time spent up to now is      187.0 secs

     WARNING: integrated charge=    32.00236033, expected=    32.00000000

     total energy              =    -913.19738490 Ry
     estimated scf accuracy    <       0.00177172 Ry

     total magnetization       =    -0.00 Bohr mag/cell
     absolute magnetization    =     2.07 Bohr mag/cell

     iteration # 19     ecut=    60.00 Ry     beta= 0.40
     RMM-DIIS diagonalization

---- Real-time Memory Report at c_bands before calling an iterative solver
           141 MiB given to the printing process from OS
            73 MiB allocation reported by mallinfo(arena+hblkhd)
        485657 MiB available memory on the node where the printing process lives
------------------
     ethr =  4.74E-08,  avg # of iterations =  2.8

     negative rho (up, down):  8.216E-01 1.202E-02

     total cpu time spent up to now is      193.6 secs

     WARNING: integrated charge=    32.00212518, expected=    32.00000000

     total energy              =    -913.19765080 Ry
     estimated scf accuracy    <       0.00133926 Ry

     total magnetization       =    -0.00 Bohr mag/cell
     absolute magnetization    =     2.09 Bohr mag/cell

     iteration # 20     ecut=    60.00 Ry     beta= 0.40
     RMM-DIIS diagonalization

---- Real-time Memory Report at c_bands before calling an iterative solver
           141 MiB given to the printing process from OS
            73 MiB allocation reported by mallinfo(arena+hblkhd)
        485648 MiB available memory on the node where the printing process lives
------------------
     ethr =  4.74E-08,  avg # of iterations =  3.5

     negative rho (up, down):  8.269E-01 1.113E-02

     total cpu time spent up to now is      202.4 secs

     WARNING: integrated charge=    32.00247377, expected=    32.00000000

     total energy              =    -913.19729106 Ry
     estimated scf accuracy    <       0.00748432 Ry

     total magnetization       =    -0.00 Bohr mag/cell
     absolute magnetization    =     1.96 Bohr mag/cell

     iteration # 21     ecut=    60.00 Ry     beta= 0.40
     ParO style diagonalization

---- Real-time Memory Report at c_bands before calling an iterative solver
           141 MiB given to the printing process from OS
            73 MiB allocation reported by mallinfo(arena+hblkhd)
        485646 MiB available memory on the node where the printing process lives
------------------
     ethr =  4.74E-08,  avg # of iterations =  4.7

     negative rho (up, down):  8.256E-01 1.133E-02

     total cpu time spent up to now is      216.0 secs

     WARNING: integrated charge=    32.00247744, expected=    32.00000000

     total energy              =    -913.19742190 Ry
     estimated scf accuracy    <       0.00051530 Ry

     total magnetization       =    -0.00 Bohr mag/cell
     absolute magnetization    =     2.12 Bohr mag/cell

     iteration # 22     ecut=    60.00 Ry     beta= 0.40
     RMM-DIIS diagonalization

---- Real-time Memory Report at c_bands before calling an iterative solver
           142 MiB given to the printing process from OS
            73 MiB allocation reported by mallinfo(arena+hblkhd)
        485643 MiB available memory on the node where the printing process lives
------------------
     ethr =  4.74E-08,  avg # of iterations =  2.9

     negative rho (up, down):  8.255E-01 1.134E-02

     total cpu time spent up to now is      223.2 secs

     WARNING: integrated charge=    32.00246067, expected=    32.00000000

     total energy              =    -913.19743797 Ry
     estimated scf accuracy    <       0.00179075 Ry

     total magnetization       =    -0.00 Bohr mag/cell
     absolute magnetization    =     2.07 Bohr mag/cell

     iteration # 23     ecut=    60.00 Ry     beta= 0.40
     RMM-DIIS diagonalization

---- Real-time Memory Report at c_bands before calling an iterative solver
           142 MiB given to the printing process from OS
            73 MiB allocation reported by mallinfo(arena+hblkhd)
        485640 MiB available memory on the node where the printing process lives
------------------
     ethr =  4.74E-08,  avg # of iterations =  2.9

     negative rho (up, down):  8.253E-01 1.138E-02

     total cpu time spent up to now is      230.3 secs

     WARNING: integrated charge=    32.00244753, expected=    32.00000000

     total energy              =    -913.19745021 Ry
     estimated scf accuracy    <       0.00269031 Ry

     total magnetization       =    -0.00 Bohr mag/cell
     absolute magnetization    =     2.05 Bohr mag/cell

     iteration # 24     ecut=    60.00 Ry     beta= 0.40
     RMM-DIIS diagonalization

---- Real-time Memory Report at c_bands before calling an iterative solver
           142 MiB given to the printing process from OS
            73 MiB allocation reported by mallinfo(arena+hblkhd)
        485640 MiB available memory on the node where the printing process lives
------------------
     ethr =  4.74E-08,  avg # of iterations =  2.7

     negative rho (up, down):  8.263E-01 1.113E-02

     total cpu time spent up to now is      236.8 secs

     WARNING: integrated charge=    32.00232308, expected=    32.00000000

     total energy              =    -913.19740061 Ry
     estimated scf accuracy    <       0.00320482 Ry

     total magnetization       =    -0.00 Bohr mag/cell
     absolute magnetization    =     2.04 Bohr mag/cell

     iteration # 25     ecut=    60.00 Ry     beta= 0.40
     RMM-DIIS diagonalization

---- Real-time Memory Report at c_bands before calling an iterative solver
           142 MiB given to the printing process from OS
            73 MiB allocation reported by mallinfo(arena+hblkhd)
        485638 MiB available memory on the node where the printing process lives
------------------
     ethr =  4.74E-08,  avg # of iterations =  2.8

     negative rho (up, down):  8.269E-01 1.098E-02

     total cpu time spent up to now is      243.5 secs

     WARNING: integrated charge=    32.00234128, expected=    32.00000000

     total energy              =    -913.19737636 Ry
     estimated scf accuracy    <       0.00224225 Ry

     total magnetization       =    -0.00 Bohr mag/cell
     absolute magnetization    =     2.06 Bohr mag/cell

     iteration # 26     ecut=    60.00 Ry     beta= 0.40
     ParO style diagonalization

---- Real-time Memory Report at c_bands before calling an iterative solver
           142 MiB given to the printing process from OS
            73 MiB allocation reported by mallinfo(arena+hblkhd)
        485636 MiB available memory on the node where the printing process lives
------------------
     ethr =  4.74E-08,  avg # of iterations =  3.0

     negative rho (up, down):  8.264E-01 1.102E-02

     total cpu time spent up to now is      253.2 secs

     WARNING: integrated charge=    32.00235387, expected=    32.00000000

     total energy              =    -913.19740243 Ry
     estimated scf accuracy    <       0.00055662 Ry

     total magnetization       =    -0.00 Bohr mag/cell
     absolute magnetization    =     2.12 Bohr mag/cell

     iteration # 27     ecut=    60.00 Ry     beta= 0.40
     RMM-DIIS diagonalization

---- Real-time Memory Report at c_bands before calling an iterative solver
           142 MiB given to the printing process from OS
            73 MiB allocation reported by mallinfo(arena+hblkhd)
        485639 MiB available memory on the node where the printing process lives
------------------
     ethr =  4.74E-08,  avg # of iterations =  2.7

     negative rho (up, down):  8.265E-01 1.096E-02

     total cpu time spent up to now is      259.6 secs

     WARNING: integrated charge=    32.00232078, expected=    32.00000000

     total energy              =    -913.19739687 Ry
     estimated scf accuracy    <       0.00088559 Ry

     total magnetization       =    -0.00 Bohr mag/cell
     absolute magnetization    =     2.10 Bohr mag/cell

     iteration # 28     ecut=    60.00 Ry     beta= 0.40
     RMM-DIIS diagonalization

---- Real-time Memory Report at c_bands before calling an iterative solver
           142 MiB given to the printing process from OS
            73 MiB allocation reported by mallinfo(arena+hblkhd)
        485638 MiB available memory on the node where the printing process lives
------------------
     ethr =  4.74E-08,  avg # of iterations =  2.5

     negative rho (up, down):  8.267E-01 1.091E-02

     total cpu time spent up to now is      265.2 secs

     WARNING: integrated charge=    32.00233975, expected=    32.00000000

     total energy              =    -913.19738972 Ry
     estimated scf accuracy    <       0.00085841 Ry

     total magnetization       =    -0.00 Bohr mag/cell
     absolute magnetization    =     2.10 Bohr mag/cell

     iteration # 29     ecut=    60.00 Ry     beta= 0.40
     RMM-DIIS diagonalization

---- Real-time Memory Report at c_bands before calling an iterative solver
           142 MiB given to the printing process from OS
            73 MiB allocation reported by mallinfo(arena+hblkhd)
        485645 MiB available memory on the node where the printing process lives
------------------
     ethr =  4.74E-08,  avg # of iterations =  2.5

     negative rho (up, down):  8.295E-01 1.018E-02

     total cpu time spent up to now is      270.8 secs

     WARNING: integrated charge=    32.00239569, expected=    32.00000000

     total energy              =    -913.19720258 Ry
     estimated scf accuracy    <       0.00074583 Ry

     total magnetization       =    -0.00 Bohr mag/cell
     absolute magnetization    =     2.11 Bohr mag/cell

     iteration # 30     ecut=    60.00 Ry     beta= 0.40
     RMM-DIIS diagonalization

---- Real-time Memory Report at c_bands before calling an iterative solver
           142 MiB given to the printing process from OS
            73 MiB allocation reported by mallinfo(arena+hblkhd)
        485642 MiB available memory on the node where the printing process lives
------------------
     ethr =  4.74E-08,  avg # of iterations =  3.4

     negative rho (up, down):  8.296E-01 1.015E-02

     total cpu time spent up to now is      279.9 secs

     WARNING: integrated charge=    32.00241252, expected=    32.00000000

     total energy              =    -913.19752986 Ry
     estimated scf accuracy    <       0.00532149 Ry

     total magnetization       =    -0.00 Bohr mag/cell
     absolute magnetization    =     2.33 Bohr mag/cell

     iteration # 31     ecut=    60.00 Ry     beta= 0.40
     ParO style diagonalization

---- Real-time Memory Report at c_bands before calling an iterative solver
           142 MiB given to the printing process from OS
            73 MiB allocation reported by mallinfo(arena+hblkhd)
        485642 MiB available memory on the node where the printing process lives
------------------
     ethr =  4.74E-08,  avg # of iterations =  4.7

     negative rho (up, down):  8.304E-01 9.935E-03

     total cpu time spent up to now is      295.8 secs

     WARNING: integrated charge=    32.00241758, expected=    32.00000000

     total energy              =    -913.19783846 Ry
     estimated scf accuracy    <       0.02090859 Ry

     total magnetization       =    -0.00 Bohr mag/cell
     absolute magnetization    =     2.48 Bohr mag/cell

     iteration # 32     ecut=    60.00 Ry     beta= 0.40
     RMM-DIIS diagonalization

---- Real-time Memory Report at c_bands before calling an iterative solver
           142 MiB given to the printing process from OS
            73 MiB allocation reported by mallinfo(arena+hblkhd)
        485646 MiB available memory on the node where the printing process lives
------------------
     ethr =  4.74E-08,  avg # of iterations =  3.2

     negative rho (up, down):  8.302E-01 1.006E-02

     total cpu time spent up to now is      304.1 secs

     WARNING: integrated charge=    32.00241706, expected=    32.00000000

     total energy              =    -913.19789225 Ry
     estimated scf accuracy    <       0.00961681 Ry

     total magnetization       =    -0.00 Bohr mag/cell
     absolute magnetization    =     2.38 Bohr mag/cell

     iteration # 33     ecut=    60.00 Ry     beta= 0.40
     RMM-DIIS diagonalization

---- Real-time Memory Report at c_bands before calling an iterative solver
           142 MiB given to the printing process from OS
            73 MiB allocation reported by mallinfo(arena+hblkhd)
        485645 MiB available memory on the node where the printing process lives
------------------
     ethr =  4.74E-08,  avg # of iterations =  3.4

     negative rho (up, down):  8.306E-01 9.871E-03

     total cpu time spent up to now is      313.0 secs

     WARNING: integrated charge=    32.00245196, expected=    32.00000000

     total energy              =    -913.19757639 Ry
     estimated scf accuracy    <       0.04652277 Ry

     total magnetization       =    -0.00 Bohr mag/cell
     absolute magnetization    =     2.63 Bohr mag/cell

     iteration # 34     ecut=    60.00 Ry     beta= 0.40
     RMM-DIIS diagonalization

---- Real-time Memory Report at c_bands before calling an iterative solver
           142 MiB given to the printing process from OS
            73 MiB allocation reported by mallinfo(arena+hblkhd)
        485643 MiB available memory on the node where the printing process lives
------------------
     ethr =  4.74E-08,  avg # of iterations =  3.3

     negative rho (up, down):  8.306E-01 9.881E-03

     total cpu time spent up to now is      321.8 secs

     WARNING: integrated charge=    32.00245327, expected=    32.00000000

     total energy              =    -913.19782030 Ry
     estimated scf accuracy    <       0.01849370 Ry

     total magnetization       =    -0.00 Bohr mag/cell
     absolute magnetization    =     2.46 Bohr mag/cell

     iteration # 35     ecut=    60.00 Ry     beta= 0.40
     RMM-DIIS diagonalization

---- Real-time Memory Report at c_bands before calling an iterative solver
           142 MiB given to the printing process from OS
            73 MiB allocation reported by mallinfo(arena+hblkhd)
        485641 MiB available memory on the node where the printing process lives
------------------
     ethr =  4.74E-08,  avg # of iterations =  3.1

     negative rho (up, down):  8.307E-01 9.907E-03

     total cpu time spent up to now is      329.8 secs

     WARNING: integrated charge=    32.00248133, expected=    32.00000000

     total energy              =    -913.19787450 Ry
     estimated scf accuracy    <       0.00990037 Ry

     total magnetization       =    -0.00 Bohr mag/cell
     absolute magnetization    =     2.39 Bohr mag/cell

     iteration # 36     ecut=    60.00 Ry     beta= 0.40
     ParO style diagonalization

---- Real-time Memory Report at c_bands before calling an iterative solver
           142 MiB given to the printing process from OS
            73 MiB allocation reported by mallinfo(arena+hblkhd)
        485641 MiB available memory on the node where the printing process lives
------------------
     ethr =  4.74E-08,  avg # of iterations =  4.1

     negative rho (up, down):  8.306E-01 9.956E-03

     total cpu time spent up to now is      343.1 secs

     WARNING: integrated charge=    32.00254926, expected=    32.00000000

     total energy              =    -913.19789347 Ry
     estimated scf accuracy    <       0.00545453 Ry

     total magnetization       =    -0.00 Bohr mag/cell
     absolute magnetization    =     2.33 Bohr mag/cell

     iteration # 37     ecut=    60.00 Ry     beta= 0.40
     RMM-DIIS diagonalization

---- Real-time Memory Report at c_bands before calling an iterative solver
           142 MiB given to the printing process from OS
            73 MiB allocation reported by mallinfo(arena+hblkhd)
        485640 MiB available memory on the node where the printing process lives
------------------
     ethr =  4.74E-08,  avg # of iterations =  2.5

     negative rho (up, down):  8.291E-01 9.950E-03

     total cpu time spent up to now is      348.6 secs

     WARNING: integrated charge=    32.00236092, expected=    32.00000000

     total energy              =    -913.19776232 Ry
     estimated scf accuracy    <       0.00535399 Ry

     total magnetization       =    -0.00 Bohr mag/cell
     absolute magnetization    =     2.33 Bohr mag/cell

     iteration # 38     ecut=    60.00 Ry     beta= 0.40
     RMM-DIIS diagonalization

---- Real-time Memory Report at c_bands before calling an iterative solver
           142 MiB given to the printing process from OS
            73 MiB allocation reported by mallinfo(arena+hblkhd)
        485640 MiB available memory on the node where the printing process lives
------------------
     ethr =  4.74E-08,  avg # of iterations =  3.5

     negative rho (up, down):  8.290E-01 9.942E-03

     total cpu time spent up to now is      357.7 secs

     WARNING: integrated charge=    32.00234363, expected=    32.00000000

     total energy              =    -913.19779545 Ry
     estimated scf accuracy    <       0.03714736 Ry

     total magnetization       =    -0.00 Bohr mag/cell
     absolute magnetization    =     2.58 Bohr mag/cell

     iteration # 39     ecut=    60.00 Ry     beta= 0.40
     RMM-DIIS diagonalization

---- Real-time Memory Report at c_bands before calling an iterative solver
           142 MiB given to the printing process from OS
            73 MiB allocation reported by mallinfo(arena+hblkhd)
        485637 MiB available memory on the node where the printing process lives
------------------
     ethr =  4.74E-08,  avg # of iterations =  3.1

     negative rho (up, down):  8.284E-01 9.489E-03

     total cpu time spent up to now is      365.6 secs

     WARNING: integrated charge=    32.00218574, expected=    32.00000000

     total energy              =    -913.19777956 Ry
     estimated scf accuracy    <       0.03608261 Ry

     total magnetization       =    -0.00 Bohr mag/cell
     absolute magnetization    =     2.58 Bohr mag/cell

     iteration # 40     ecut=    60.00 Ry     beta= 0.40
     RMM-DIIS diagonalization

---- Real-time Memory Report at c_bands before calling an iterative solver
           142 MiB given to the printing process from OS
            73 MiB allocation reported by mallinfo(arena+hblkhd)
        485636 MiB available memory on the node where the printing process lives
------------------
     ethr =  4.74E-08,  avg # of iterations =  3.3

     negative rho (up, down):  8.295E-01 9.424E-03

     total cpu time spent up to now is      374.3 secs

     WARNING: integrated charge=    32.00220160, expected=    32.00000000

     total energy              =    -913.19788232 Ry
     estimated scf accuracy    <       0.01314188 Ry

     total magnetization       =    -0.00 Bohr mag/cell
     absolute magnetization    =     2.42 Bohr mag/cell

     iteration # 41     ecut=    60.00 Ry     beta= 0.40
     ParO style diagonalization

---- Real-time Memory Report at c_bands before calling an iterative solver
           142 MiB given to the printing process from OS
            73 MiB allocation reported by mallinfo(arena+hblkhd)
        485634 MiB available memory on the node where the printing process lives
------------------
     ethr =  4.74E-08,  avg # of iterations =  4.8

     negative rho (up, down):  8.309E-01 9.116E-03

     total cpu time spent up to now is      388.8 secs

     WARNING: integrated charge=    32.00210633, expected=    32.00000000

     total energy              =    -913.19784593 Ry
     estimated scf accuracy    <       0.00535752 Ry

     total magnetization       =    -0.00 Bohr mag/cell
     absolute magnetization    =     2.33 Bohr mag/cell

     iteration # 42     ecut=    60.00 Ry     beta= 0.40
     RMM-DIIS diagonalization

---- Real-time Memory Report at c_bands before calling an iterative solver
           142 MiB given to the printing process from OS
            73 MiB allocation reported by mallinfo(arena+hblkhd)
        485633 MiB available memory on the node where the printing process lives
------------------
     ethr =  4.74E-08,  avg # of iterations =  2.5

     negative rho (up, down):  8.323E-01 9.191E-03

     total cpu time spent up to now is      394.5 secs

     WARNING: integrated charge=    32.00230241, expected=    32.00000000

     total energy              =    -913.19780542 Ry
     estimated scf accuracy    <       0.00556540 Ry

     total magnetization       =    -0.00 Bohr mag/cell
     absolute magnetization    =     2.34 Bohr mag/cell

     iteration # 43     ecut=    60.00 Ry     beta= 0.40
     RMM-DIIS diagonalization

---- Real-time Memory Report at c_bands before calling an iterative solver
           142 MiB given to the printing process from OS
            73 MiB allocation reported by mallinfo(arena+hblkhd)
        485634 MiB available memory on the node where the printing process lives
------------------
     ethr =  4.74E-08,  avg # of iterations =  2.5

     negative rho (up, down):  8.317E-01 9.129E-03

     total cpu time spent up to now is      400.3 secs

     WARNING: integrated charge=    32.00230887, expected=    32.00000000

     total energy              =    -913.19782938 Ry
     estimated scf accuracy    <       0.00571241 Ry

     total magnetization       =    -0.00 Bohr mag/cell
     absolute magnetization    =     2.34 Bohr mag/cell

     iteration # 44     ecut=    60.00 Ry     beta= 0.40
     RMM-DIIS diagonalization

---- Real-time Memory Report at c_bands before calling an iterative solver
           142 MiB given to the printing process from OS
            73 MiB allocation reported by mallinfo(arena+hblkhd)
        485633 MiB available memory on the node where the printing process lives
------------------
     ethr =  4.74E-08,  avg # of iterations =  2.5

     negative rho (up, down):  8.319E-01 9.412E-03

     total cpu time spent up to now is      405.8 secs

     WARNING: integrated charge=    32.00246922, expected=    32.00000000

     total energy              =    -913.19781443 Ry
     estimated scf accuracy    <       0.00579175 Ry

     total magnetization       =    -0.00 Bohr mag/cell
     absolute magnetization    =     2.34 Bohr mag/cell

     iteration # 45     ecut=    60.00 Ry     beta= 0.40
     RMM-DIIS diagonalization

---- Real-time Memory Report at c_bands before calling an iterative solver
           142 MiB given to the printing process from OS
            73 MiB allocation reported by mallinfo(arena+hblkhd)
        485633 MiB available memory on the node where the printing process lives
------------------
     ethr =  4.74E-08,  avg # of iterations =  2.5

     negative rho (up, down):  8.324E-01 9.447E-03

[...]
     0.0000   0.0000   0.0000   0.0000   0.0000   0.0000   0.0000   0.0000

          k = 0.0000-0.1853 0.3785 (  5840 PWs)   bands (ev):

   -19.0183 -18.8689  -8.1868  -5.2566  -3.9317  -3.8705  -3.7891  -3.7234
    -3.6764  -1.8575   3.3849   4.0259   4.0812   6.6942   7.3455   7.3812
    10.4260  10.6803  11.4734  11.6923  11.7130  12.4180  12.7285  13.1579

     occupation numbers 
     1.0000   1.0000   1.0000   1.0000   1.0000   1.0000   1.0000   1.0000
     1.0000   1.0000   1.0000   1.0000   1.0000   1.0000   1.0000   1.0000
     0.0000   0.0000   0.0000   0.0000   0.0000   0.0000   0.0000   0.0000

          k = 0.0000 1.8529 0.0582 (  5833 PWs)   bands (ev):

   -18.9945 -18.8595  -8.1599  -5.2451  -4.1516  -3.9352  -3.9116  -3.7370
    -3.7162  -1.7872   3.3767   3.8306   4.0389   6.9714   7.4409   7.4804
    10.0138  10.9665  11.2881  11.9506  12.0811  12.1195  12.8531  13.1349

     occupation numbers 
     1.0000   1.0000   1.0000   1.0000   1.0000   1.0000   1.0000   1.0000
     1.0000   1.0000   1.0000   1.0000   1.0000   1.0000   1.0000   1.0000
     0.0000   0.0000   0.0000   0.0000   0.0000   0.0000   0.0000   0.0000

          k = 0.0000 1.6676 0.0874 (  5828 PWs)   bands (ev):

   -18.9608 -18.8475  -8.1252  -5.2549  -4.3679  -4.0537  -4.0142  -3.7889
    -3.7630  -1.7602   3.4014   3.5966   3.9827   7.2056   7.5757   7.5895
     9.5810  11.0257  11.5052  12.1261  12.1907  12.4792  13.3617  13.4613

     occupation numbers 
     1.0000   1.0000   1.0000   1.0000   1.0000   1.0000   1.0000   1.0000
     1.0000   1.0000   1.0000   1.0000   1.0000   1.0000   1.0000   1.0000
     0.0000   0.0000   0.0000   0.0000   0.0000   0.0000   0.0000   0.0000

          k = 0.0000 1.4823 0.1165 (  5815 PWs)   bands (ev):

   -18.9245 -18.8376  -8.0914  -5.3152  -4.5186  -4.1512  -4.0871  -3.8673
    -3.7928  -1.7835   3.3729   3.4528   3.9266   7.2477   7.6717   7.7314
     9.2507  11.1644  11.9207  12.3985  12.5528  12.6681  13.9377  14.2249

     occupation numbers 
     1.0000   1.0000   1.0000   1.0000   1.0000   1.0000   1.0000   1.0000
     1.0000   1.0000   1.0000   1.0000   1.0000   1.0000   1.0000   1.0001
     0.0004   0.0000   0.0000   0.0000   0.0000   0.0000   0.0000   0.0000

          k =-0.1605-0.0926 0.4076 (  5845 PWs)   bands (ev):

   -19.0178 -18.8694  -8.1852  -5.2672  -3.9094  -3.8743  -3.8085  -3.7194
    -3.6645  -1.8645   3.3904   4.0231   4.0886   6.6656   7.3423   7.3664
    10.4519  10.8154  11.3967  11.5729  11.9247  12.2141  12.8593  13.0358

     occupation numbers 
     1.0000   1.0000   1.0000   1.0000   1.0000   1.0000   1.0000   1.0000
     1.0000   1.0000   1.0000   1.0000   1.0000   1.0000   1.0000   1.0000
     0.0000   0.0000   0.0000   0.0000   0.0000   0.0000   0.0000   0.0000

          k =-0.1605 1.9456 0.0874 (  5836 PWs)   bands (ev):

   -19.0017 -18.8629  -8.1669  -5.2589  -4.0285  -3.9909  -3.8426  -3.7450
    -3.6904  -1.8106   3.3857   3.8928   4.0546   6.8510   7.4076   7.4321
    10.2324  10.9123  11.2635  11.8403  12.0688  12.1533  12.7495  13.1502

     occupation numbers 
     1.0000   1.0000   1.0000   1.0000   1.0000   1.0000   1.0000   1.0000
     1.0000   1.0000   1.0000   1.0000   1.0000   1.0000   1.0000   1.0000
     0.0000   0.0000   0.0000   0.0000   0.0000   0.0000   0.0000   0.0000

          k =-0.1605 1.7603 0.1165 (  5821 PWs)   bands (ev):

   -18.9731 -18.8519  -8.1370  -5.2528  -4.2460  -4.0974  -3.9232  -3.7812
    -3.7520  -1.7639   3.3994   3.6911   3.9956   7.1198   7.4754   7.5596
     9.8758  10.8885  11.2485  12.0719  12.2544  12.5596  13.0661  13.3538

     occupation numbers 
     1.0000   1.0000   1.0000   1.0000   1.0000   1.0000   1.0000   1.0000
     1.0000   1.0000   1.0000   1.0000   1.0000   1.0000   1.0000   1.0000
     0.0000   0.0000   0.0000   0.0000   0.0000   0.0000   0.0000   0.0000

          k =-0.1605 1.5750 0.1456 (  5820 PWs)   bands (ev):

   -18.9382 -18.8409  -8.1032  -5.2877  -4.4174  -4.1852  -4.0374  -3.8278
    -3.8139  -1.7643   3.4431   3.4791   3.9262   7.2657   7.5579   7.6817
     9.5192  10.9270  11.6021  12.3199  12.5002  12.9164  13.6815  13.9079

     occupation numbers 
     1.0000   1.0000   1.0000   1.0000   1.0000   1.0000   1.0000   1.0000
     1.0000   1.0000   1.0000   1.0000   1.0000   1.0000   1.0000   1.0000
     0.0000   0.0000   0.0000   0.0000   0.0000   0.0000   0.0000   0.0000

          k = 1.6047 0.9265-0.2329 (  5832 PWs)   bands (ev):

   -18.9940 -18.8600  -8.1584  -5.2611  -4.0947  -3.9613  -3.9402  -3.7316
    -3.7017  -1.7982   3.3932   3.8325   4.0438   6.9053   7.4430   7.4439
    10.0850  11.0571  11.3587  11.8180  11.9248  12.3772  12.7739  13.2485

     occupation numbers 
     1.0000   1.0000   1.0000   1.0000   1.0000   1.0000   1.0000   1.0000
     1.0000   1.0000   1.0000   1.0000   1.0000   1.0000   1.0000   1.0000
     0.0000   0.0000   0.0000   0.0000   0.0000   0.0000   0.0000   0.0000

          k = 1.6047 0.7412-0.2038 (  5819 PWs)   bands (ev):

   -18.9730 -18.8520  -8.1368  -5.2581  -4.2103  -4.1280  -3.9279  -3.7782
    -3.7481  -1.7673   3.4064   3.6909   3.9966   7.0916   7.4753   7.5492
     9.9061  10.8230  11.3567  12.0681  12.2535  12.6491  12.9307  13.4560

     occupation numbers 
     1.0000   1.0000   1.0000   1.0000   1.0000   1.0000   1.0000   1.0000
     1.0000   1.0000   1.0000   1.0000   1.0000   1.0000   1.0000   1.0000
     0.0000   0.0000   0.0000   0.0000   0.0000   0.0000   0.0000   0.0000

          k = 1.6047 0.5559-0.1747 (  5816 PWs)   bands (ev):

   -18.9431 -18.8422  -8.1071  -5.2806  -4.2965  -4.2880  -3.9707  -3.8666
    -3.8113  -1.7564   3.4491   3.5333   3.9145   7.2799   7.4694   7.6598
     9.8738  10.4849  11.5714  12.3656  12.4463  13.1545  13.5832  13.6672

     occupation numbers 
     1.0000   1.0000   1.0000   1.0000   1.0000   1.0000   1.0000   1.0000
     1.0000   1.0000   1.0000   1.0000   1.0000   1.0000   1.0000   1.0000
     0.0000   0.0000   0.0000   0.0000   0.0000   0.0000   0.0000   0.0000

          k = 1.4442 0.8338-0.1747 (  5827 PWs)   bands (ev):

   -18.9606 -18.8477  -8.1249  -5.2638  -4.3275  -4.0935  -4.0180  -3.7782
    -3.7587  -1.7645   3.4125   3.5948   3.9817   7.1657   7.5641   7.5779
     9.5928  11.0462  11.5769  12.1655  12.1670  12.6058  13.2932  13.5353

     occupation numbers 
     1.0000   1.0000   1.0000   1.0000   1.0000   1.0000   1.0000   1.0000
     1.0000   1.0000   1.0000   1.0000   1.0000   1.0000   1.0000   1.0000
     0.0000   0.0000   0.0000   0.0000   0.0000   0.0000   0.0000   0.0000

          k = 0.0000-0.0000 0.4368 (  5849 PWs)   bands (ev):

   -19.0258 -18.8735  -8.1932  -5.2831  -3.8456  -3.8456  -3.7193  -3.7193
    -3.6488  -1.9081   3.3937   4.1022   4.1022   6.5506   7.3143   7.3143
    10.5348  10.8139  11.5913  11.5913  11.6242  12.5842  12.7930  12.7930

     occupation numbers 
     1.0000   1.0000   1.0000   1.0000   1.0000   1.0000   1.0000   1.0000
     1.0000   1.0000   1.0000   1.0000   1.0000   1.0000   1.0000   1.0000
     0.0000   0.0000   0.0000   0.0000   0.0000   0.0000   0.0000   0.0000

          k = 0.0000 2.0382 0.1165 (  5832 PWs)   bands (ev):

   -19.0172 -18.8700  -8.1832  -5.2772  -3.9214  -3.8721  -3.7926  -3.7217
    -3.6566  -1.8667   3.3858   4.0254   4.0848   6.6606   7.3497   7.3600
    10.4142  10.9226  11.4193  11.7194  11.7959  12.2169  12.7689  12.9502

     occupation numbers 
     1.0000   1.0000   1.0000   1.0000   1.0000   1.0000   1.0000   1.0000
     1.0000   1.0000   1.0000   1.0000   1.0000   1.0000   1.0000   1.0000
     0.0000   0.0000   0.0000   0.0000   0.0000   0.0000   0.0000   0.0000

          k = 0.0000 1.8529 0.1456 (  5829 PWs)   bands (ev):

   -18.9939 -18.8602  -8.1582  -5.2573  -4.1228  -3.9381  -3.9364  -3.7339
    -3.7055  -1.7927   3.3816   3.8313   4.0410   6.9355   7.4501   7.4614
    10.0314  11.1653  11.1910  11.8898  11.9624  12.2776  12.9462  13.0505

     occupation numbers 
     1.0000   1.0000   1.0000   1.0000   1.0000   1.0000   1.0000   1.0000
     1.0000   1.0000   1.0000   1.0000   1.0000   1.0000   1.0000   1.0000
     0.0000   0.0000   0.0000   0.0000   0.0000   0.0000   0.0000   0.0000

          k = 1.7651 1.0191-0.2038 (  5848 PWs)   bands (ev):

   -19.0171 -18.8702  -8.1826  -5.2810  -3.9137  -3.8735  -3.7992  -3.7203
    -3.6523  -1.8692   3.3877   4.0244   4.0876   6.6502   7.3459   7.3575
    10.4247  10.9916  11.3736  11.6619  11.9031  12.1360  12.8307  12.8785

     occupation numbers 
     1.0000   1.0000   1.0000   1.0000   1.0000   1.0000   1.0000   1.0000
     1.0000   1.0000   1.0000   1.0000   1.0000   1.0000   1.0000   1.0000
     0.0000   0.0000   0.0000   0.0000   0.0000   0.0000   0.0000   0.0000

          k = 1.7651 0.8338-0.1747 (  5834 PWs)   bands (ev):

   -19.0013 -18.8633  -8.1657  -5.2646  -4.0113  -4.0064  -3.8423  -3.7449
    -3.6864  -1.8117   3.3834   3.8924   4.0550   6.8438   7.4161   7.4279
    10.2205  10.9631  11.2768  11.8205  12.0543  12.1755  12.7732  13.0704

     occupation numbers 
     1.0000   1.0000   1.0000   1.0000   1.0000   1.0000   1.0000   1.0000
     1.0000   1.0000   1.0000   1.0000   1.0000   1.0000   1.0000   1.0000
     0.0000   0.0000   0.0000   0.0000   0.0000   0.0000   0.0000   0.0000

          k =-0.0000 0.0000-0.5241 (  5856 PWs)   bands (ev):

   -19.0254 -18.8740  -8.1913  -5.2938  -3.8457  -3.8457  -3.7192  -3.7192
    -3.6339  -1.9141   3.3951   4.1034   4.1034   6.5331   7.3080   7.3080
    10.5445  10.9273  11.5883  11.6270  11.6270  12.4781  12.7322  12.7322

     occupation numbers 
     1.0000   1.0000   1.0000   1.0000   1.0000   1.0000   1.0000   1.0000
     1.0000   1.0000   1.0000   1.0000   1.0000   1.0000   1.0000   1.0000
     0.0000   0.0000   0.0000   0.0000   0.0000   0.0000   0.0000   0.0000

     the Fermi energy is     8.7177 ev

     WARNING: integrated charge=    32.00236661, expected=    32.00000000

!    total energy              =    -913.19735404 Ry
     estimated scf accuracy    <          3.7E-10 Ry
     smearing contrib. (-TS)   =       0.00003484 Ry
     internal energy E=F+TS    =    -913.19738888 Ry

     The total energy is F=E-TS. E is the sum of the following terms:
     one-electron contribution =     -13.80101864 Ry
     hartree contribution      =      24.59231549 Ry
     xc contribution           =     -55.99725813 Ry
     ewald contribution        =    -130.72938439 Ry
     one-center paw contrib.   =    -737.26204321 Ry
      -> PAW hartree energy AE =      30.29826864 Ry
      -> PAW hartree energy PS =     -30.61783928 Ry
      -> PAW xc energy AE      =    -388.02677553 Ry
      -> PAW xc energy PS      =      19.71532455 Ry
      -> total E_H with PAW    =      24.27274486 Ry
      -> total E_XC with PAW   =    -424.30870910 Ry

     total magnetization       =    -0.00 Bohr mag/cell
     absolute magnetization    =     2.16 Bohr mag/cell

     convergence has been achieved in  93 iterations

     negative rho (up, down):  8.275E-01 1.008E-02

     Forces acting on atoms (cartesian axes, Ry/au):

     atom    1 type  1   force =    -0.00000000    0.00000000   -0.00742783
     atom    2 type  1   force =     0.00000000   -0.00000000    0.00742783
     atom    3 type  3   force =    -0.00000000   -0.00000000   -0.00000000
     atom    4 type  2   force =     0.00000000    0.00000000    0.00000000
     The non-local contrib.  to forces
     atom    1 type  1   force =     0.00000000    0.00000000    1.14295963
     atom    2 type  1   force =    -0.00000000   -0.00000000   -1.14295963
     atom    3 type  3   force =     0.00000000    0.00000000   -0.00000000
     atom    4 type  2   force =     0.00000000   -0.00000000    0.00000000
     The ionic contribution  to forces
     atom    1 type  1   force =    -0.00000000   -0.00000000   -4.34987170
     atom    2 type  1   force =    -0.00000000   -0.00000000    4.34987170
     atom    3 type  3   force =    -0.00000000    0.00000000    0.00000000
     atom    4 type  2   force =    -0.00000000    0.00000000   -0.00000000
     The local contribution  to forces
     atom    1 type  1   force =     0.00000000   -0.00000000    3.35631294
     atom    2 type  1   force =    -0.00000000   -0.00000000   -3.35631293
     atom    3 type  3   force =     0.00000000   -0.00000000    0.00000000
     atom    4 type  2   force =     0.00000000    0.00000000   -0.00000000
     The core correction contribution to forces
     atom    1 type  1   force =    -0.00000000    0.00000000   -0.15682877
     atom    2 type  1   force =     0.00000000    0.00000000    0.15682877
     atom    3 type  3   force =     0.00000000    0.00000000   -0.00000000
     atom    4 type  2   force =    -0.00000000   -0.00000000    0.00000000
     The Hubbard contrib.    to forces
     atom    1 type  1   force =     0.00000000    0.00000000    0.00000000
     atom    2 type  1   force =     0.00000000    0.00000000    0.00000000
     atom    3 type  3   force =     0.00000000    0.00000000    0.00000000
     atom    4 type  2   force =     0.00000000    0.00000000    0.00000000
     The SCF correction term to forces
     atom    1 type  1   force =     0.00000000    0.00000000    0.00000008
     atom    2 type  1   force =    -0.00000000    0.00000000   -0.00000008
     atom    3 type  3   force =    -0.00000000   -0.00000000    0.00000000
     atom    4 type  2   force =    -0.00000000   -0.00000000   -0.00000000

     Total force =     0.010505     Total SCF correction =     0.000000


     Computing stress (Cartesian axis) and pressure


     negative rho (up, down):  8.275E-01 1.008E-02
          total   stress  (Ry/bohr**3)                   (kbar)     P=      -24.06
  -0.00018246   0.00000000  -0.00000000          -26.84        0.00       -0.00
   0.00000000  -0.00018246  -0.00000000            0.00      -26.84       -0.00
  -0.00000000  -0.00000000  -0.00012583           -0.00       -0.00      -18.51

     kinetic stress (kbar)   7699.30      0.00      0.00
                                0.00   7699.30      0.00
                                0.00      0.00   7642.48

     local   stress (kbar)  -3713.30      0.00     -0.00
                                0.00  -3713.30      0.00
                               -0.00      0.00  -1751.99

     nonloc. stress (kbar)   4731.88      0.00      0.00
                                0.00   4731.88      0.00
                                0.00      0.00   4894.52

     hartree stress (kbar)   2003.58     -0.00      0.00
                               -0.00   2003.58     -0.00
                                0.00     -0.00    873.82

     exc-cor stress (kbar)   3508.78     -0.00      0.00
                               -0.00   3508.78      0.00
                                0.00      0.00   3490.23

     corecor stress (kbar)  -5923.81     -0.00     -0.00
                               -0.00  -5923.81      0.00
                               -0.00      0.00  -5887.54

     ewald   stress (kbar)  -8333.27     -0.00     -0.00
                               -0.00  -8333.27     -0.00
                               -0.00     -0.00  -9280.02

     hubbard stress (kbar)      0.00      0.00      0.00
                                0.00      0.00      0.00
                                0.00      0.00      0.00

     DFT-D   stress (kbar)      0.00      0.00      0.00
                                0.00      0.00      0.00
                                0.00      0.00      0.00

     XDM     stress (kbar)      0.00      0.00      0.00
                                0.00      0.00      0.00
                                0.00      0.00      0.00

     dft-nl  stress (kbar)      0.00      0.00      0.00
                                0.00      0.00      0.00
                                0.00      0.00      0.00

     TS-vdW  stress (kbar)      0.00      0.00      0.00
                                0.00      0.00      0.00
                                0.00      0.00      0.00

     MDB     stress (kbar)      0.00      0.00      0.00
                                0.00      0.00      0.00
                                0.00      0.00      0.00

     3D-RISM stress (kbar)      0.00      0.00      0.00
                                0.00      0.00      0.00
                                0.00      0.00      0.00


     Writing all to output data dir ./out/aiida.save/ :
     XML data file, charge density, pseudopotentials, collected wavefunctions

     init_run     :      3.13s CPU      3.39s WALL (       1 calls)
     electrons    :    751.03s CPU    791.52s WALL (       1 calls)
     forces       :      0.44s CPU      0.46s WALL (       1 calls)
     stress       :      2.02s CPU      2.06s WALL (       1 calls)

     Called by init_run:
     wfcinit      :      1.75s CPU      1.85s WALL (       1 calls)
     wfcinit:atom :      0.01s CPU      0.01s WALL (      54 calls)
     wfcinit:wfcr :      1.71s CPU      1.80s WALL (      54 calls)
     potinit      :      0.49s CPU      0.62s WALL (       1 calls)
     hinit0       :      0.63s CPU      0.65s WALL (       1 calls)

     Called by electrons:
     c_bands      :    624.10s CPU    655.89s WALL (      93 calls)
     sum_band     :     90.32s CPU     94.72s WALL (      93 calls)
     v_of_rho     :     20.89s CPU     23.17s WALL (      94 calls)
     v_h          :      0.66s CPU      0.68s WALL (      94 calls)
     v_xc         :     20.65s CPU     22.95s WALL (      96 calls)
     newd         :      2.41s CPU      2.60s WALL (      94 calls)
     PAW_pot      :      8.98s CPU     10.59s WALL (      94 calls)
     mix_rho      :      1.42s CPU      1.46s WALL (      93 calls)

     Called by c_bands:
     init_us_2    :      3.47s CPU      3.60s WALL (   10206 calls)
     init_us_2:cp :      3.44s CPU      3.56s WALL (   10206 calls)
     crmmdiagg    :    243.26s CPU    254.43s WALL (    3996 calls)
     wfcrot       :    133.41s CPU    140.43s WALL (    4050 calls)

     Called by sum_band:
     sum_band:wei :      0.25s CPU      0.25s WALL (      93 calls)
     sum_band:loo :     83.39s CPU     87.55s WALL (      93 calls)
     sum_band:buf :      0.45s CPU      0.47s WALL (    5022 calls)
     sum_band:ini :      1.63s CPU      1.67s WALL (    5022 calls)
     sum_band:cal :      2.35s CPU      2.43s WALL (    5022 calls)
     sum_band:bec :      0.10s CPU      0.11s WALL (    5022 calls)
     addusdens    :      2.95s CPU      2.98s WALL (      93 calls)
                                        0.00s GPU  (      93 calls)
     addusd:skk   :      0.01s CPU      0.01s WALL (     279 calls)
                                        0.00s GPU  (     279 calls)

     Called by *rmmdiagg:
     h_psi        :    536.62s CPU    564.19s WALL (   34270 calls)
     s_psi        :      7.12s CPU      7.35s WALL (   34270 calls)
     g_psi        :      0.48s CPU      0.56s WALL (  160931 calls)

     Called by h_psi:
     h_psi:calbec :     13.90s CPU     14.37s WALL (   34270 calls)
     vloc_psi     :    514.22s CPU    540.96s WALL (   34270 calls)
     add_vuspsi   :      7.75s CPU      8.01s WALL (   34270 calls)

     General routines
     calbec       :     16.27s CPU     16.79s WALL (   39562 calls)
     fft          :      6.86s CPU      7.46s WALL (    2388 calls)
     ffts         :      0.59s CPU      0.62s WALL (     374 calls)
     fftw         :    480.10s CPU    507.09s WALL (  929196 calls)
     interpolate  :      1.14s CPU      1.25s WALL (     188 calls)

     Parallel routines

     PAW routines
     PAW_pot      :      8.98s CPU     10.59s WALL (      94 calls)
     PAW_symme    :      0.04s CPU      0.05s WALL (     186 calls)

     PWSCF        :  12m37.04s CPU  13m18.51s WALL


   This run was terminated on:  22:53:56  19Dec2023            

=------------------------------------------------------------------------------=
   JOB DONE.
=------------------------------------------------------------------------------=
