
     Program PWSCF v.7.2 starts on 23Oct2023 at 22:18:40 

     This program is part of the open-source Quantum ESPRESSO suite
     for quantum simulation of materials; please cite
         "P. Giannozzi et al., J. Phys.:Condens. Matter 21 395502 (2009);
         "P. Giannozzi et al., J. Phys.:Condens. Matter 29 465901 (2017);
         "P. Giannozzi et al., J. Chem. Phys. 152 154105 (2020);
          URL http://www.quantum-espresso.org", 
     in publications or presentations arising from this work. More details at
     http://www.quantum-espresso.org/quote

     Parallel version (MPI & OpenMP), running on      12 processor cores
     Number of MPI processes:                 1
     Threads/MPI process:                    12

     MPI processes distributed on     1 nodes
     60511 MiB available memory on the printing compute node when the environment starts
 
     Reading input from aiida.in

     Current dimensions of program PWSCF are:
     Max number of different atomic species (ntypx) = 10
     Max number of k-points (npk) =  40000
     Max angular momentum in pseudopotentials (lmaxx) =  4
     file Ba.pbesol-spn-kjpaw_psl.1.0.0.UPF: wavefunction(s)  5S 6S renormalized
     file O.pbesol-n-kjpaw_psl.0.1.UPF: wavefunction(s)  2P renormalized
     Message from routine setup:
     using ibrav=0 with symmetry is DISCOURAGED, use correct ibrav instead
 
     Subspace diagonalization in iterative solution of the eigenvalue problem:
     a serial algorithm will be used

 
     G-vector sticks info
     --------------------
     sticks:   dense  smooth     PW     G-vecs:    dense   smooth      PW
     Sum        3999    1993    557               257539    90967   13501
 
     Using Slab Decomposition
 


     bravais-lattice index     =            0
     lattice parameter (alat)  =      10.4483  a.u.
     unit-cell volume          =    1906.9271 (a.u.)^3
     number of atoms/cell      =           14
     number of atomic types    =            3
     number of electrons       =       116.00
     number of Kohn-Sham states=           70
     kinetic-energy cutoff     =      50.0000  Ry
     charge density cutoff     =     400.0000  Ry
     scf convergence threshold =      2.8E-09
     mixing beta               =       0.2000
     number of iterations used =            8  plain     mixing
     Exchange-correlation= PBESOL
                           (   1   4  10   8   0   0   0)

     GPU acceleration is ACTIVE.


     GPU used by master process:

        Device Number: 0
        Device name: Tesla P100-PCIE-16GB
        Compute capability : 60
        Ratio of single to double precision performance  : 2
        Memory Clock Rate (KHz): 715000
        Memory Bus Width (bits): 4096
        Peak Memory Bandwidth (GB/s): 732.16

     celldm(1)=  10.448296  celldm(2)=   0.000000  celldm(3)=   0.000000
     celldm(4)=   0.000000  celldm(5)=   0.000000  celldm(6)=   0.000000

     crystal axes: (cart. coord. in units of alat)
               a(1) = (   1.000000   0.000000   0.000000 )  
               a(2) = (   0.000000   1.150118   0.000000 )  
               a(3) = (  -0.494631   0.000000   1.453635 )  

     reciprocal axes: (cart. coord. in units 2 pi/alat)
               b(1) = (  1.000000 -0.000000  0.340272 )  
               b(2) = (  0.000000  0.869476 -0.000000 )  
               b(3) = (  0.000000  0.000000  0.687930 )  


     PseudoPot. # 1 for Ba read from file:
     ./pseudo/Ba.pbesol-spn-kjpaw_psl.1.0.0.UPF
     MD5 check sum: f28c4a63d325c1a0d00fd3a4f19b8d73
     Pseudo is Projector augmented-wave + core cor, Zval = 10.0
     Generated using "atomic" code by A. Dal Corso  v.6.0 svn rev. 13079
     Shape of augmentation charge: PSQ
     Using radial grid of 1251 points,  7 beta functions with: 
                l(1) =   0
                l(2) =   0
                l(3) =   0
                l(4) =   1
                l(5) =   1
                l(6) =   2
                l(7) =   2
     Q(r) pseudized with 0 coefficients 


     PseudoPot. # 2 for O  read from file:
     ./pseudo/O.pbesol-n-kjpaw_psl.0.1.UPF
     MD5 check sum: 81d73d1479e654e5638b0319f0d6c2c7
     Pseudo is Projector augmented-wave + core cor, Zval =  6.0
     Generated using "atomic" code by A. Dal Corso  v.6.0 svn rev. 13079
     Shape of augmentation charge: BESSEL
     Using radial grid of 1095 points,  4 beta functions with: 
                l(1) =   0
                l(2) =   0
                l(3) =   1
                l(4) =   1
     Q(r) pseudized with 0 coefficients 


     PseudoPot. # 3 for Pd read from file:
     ./pseudo/Pd_ONCV_PBEsol-1.0.upf
     MD5 check sum: 252ac589d0cc8911379e98310815452c
     Pseudo is Norm-conserving, Zval = 18.0
     Generated using ONCVPSP code by D. R. Hamann
     Using radial grid of 1394 points,  6 beta functions with: 
                l(1) =   0
                l(2) =   0
                l(3) =   1
                l(4) =   1
                l(5) =   2
                l(6) =   2

     atomic species   valence    mass     pseudopotential
        Ba            10.00   137.32700     Ba( 1.00)
        O              6.00    15.99940     O ( 1.00)
        Pd            18.00   106.42000     Pd( 1.00)

     Starting magnetic structure 
     atomic species   magnetization
        Ba           0.100
        O            0.100
        Pd           0.100

      2 Sym. Ops. (no inversion) found


                                    s                        frac. trans.

      isym =  1     identity                                     

 cryst.   s( 1) = (     1          0          0      )
                  (     0          1          0      )
                  (     0          0          1      )

 cart.    s( 1) = (  1.0000000  0.0000000 -0.0000000 )
                  (  0.0000000  1.0000000  0.0000000 )
                  (  0.0000000  0.0000000  1.0000000 )


      isym =  2     180 deg rotation - cart. axis [0,1,0]        

 cryst.   s( 2) = (    -1          0          0      )
                  (     0          1          0      )
                  (     0          0         -1      )

 cart.    s( 2) = ( -1.0000000  0.0000000  0.0000000 )
                  (  0.0000000  1.0000000  0.0000000 )
                  (  0.0000000  0.0000000 -1.0000000 )


   Cartesian axes

     site n.     atom                  positions (alat units)
         1           Ba  tau(   1) = (  -0.2473157   0.0775179   0.7268177  )
         2           Ba  tau(   2) = (   0.0000000   0.0000000   0.0000000  )
         3           Pd  tau(   3) = (   0.6284232   0.6084122   1.0893544  )
         4           Pd  tau(   4) = (  -0.1230546   0.6084122   0.3642810  )
         5           O   tau(   5) = (   0.4739191   0.2822388   1.0611538  )
         6           O   tau(   6) = (   0.0314495   0.2822388   0.3924816  )
         7           O   tau(   7) = (   0.6997509   0.9194040   0.3386970  )
         8           O   tau(   8) = (  -0.1943823   0.9194040   1.1149384  )
         9           O   tau(   9) = (   0.5735891   0.4329043   0.4302761  )
        10           O   tau(  10) = (  -0.0682205   0.4329043   1.0233593  )
        11           O   tau(  11) = (   0.3128325   0.7710388   1.1730838  )
        12           O   tau(  12) = (   0.1925361   0.7710388   0.2805516  )
        13           O   tau(  13) = (   0.2526843   0.9930115   0.7268177  )
        14           O   tau(  14) = (   0.5000000   0.1821786   0.0000000  )

   Crystallographic axes

     site n.     atom                  positions (cryst. coord.)
         1           Ba  tau(   1) = (  0.0000000  0.0674000  0.5000000  )
         2           Ba  tau(   2) = (  0.0000000  0.0000000  0.0000000  )
         3           Pd  tau(   3) = (  0.9991000  0.5290000  0.7494000  )
         4           Pd  tau(   4) = (  0.0009000  0.5290000  0.2506000  )
         5           O   tau(   5) = (  0.8350000  0.2454000  0.7300000  )
         6           O   tau(   6) = (  0.1650000  0.2454000  0.2700000  )
         7           O   tau(   7) = (  0.8150000  0.7994000  0.2330000  )
         8           O   tau(   8) = (  0.1850000  0.7994000  0.7670000  )
         9           O   tau(   9) = (  0.7200000  0.3764000  0.2960000  )
        10           O   tau(  10) = (  0.2800000  0.3764000  0.7040000  )
        11           O   tau(  11) = (  0.7120000  0.6704000  0.8070000  )
        12           O   tau(  12) = (  0.2880000  0.6704000  0.1930000  )
        13           O   tau(  13) = (  0.5000000  0.8634000  0.5000000  )
        14           O   tau(  14) = (  0.5000000  0.1584000  0.0000000  )

     number of k points=   112  Marzari-Vanderbilt smearing, width (Ry)=  0.0100
                       cart. coord. in units 2pi/alat
        k(    1) = (   0.0000000   0.0000000   0.0000000), wk =   0.0026455
        k(    2) = (   0.0000000   0.0000000   0.1146551), wk =   0.0052910
        k(    3) = (   0.0000000   0.0000000   0.2293101), wk =   0.0052910
        k(    4) = (   0.0000000   0.0000000  -0.3439652), wk =   0.0026455
        k(    5) = (   0.0000000   0.1242109   0.0000000), wk =   0.0052910
        k(    6) = (   0.0000000   0.1242109   0.1146551), wk =   0.0105820
        k(    7) = (   0.0000000   0.1242109   0.2293101), wk =   0.0105820
        k(    8) = (   0.0000000   0.1242109  -0.3439652), wk =   0.0052910
        k(    9) = (   0.0000000   0.2484218   0.0000000), wk =   0.0052910
        k(   10) = (   0.0000000   0.2484218   0.1146551), wk =   0.0105820
        k(   11) = (   0.0000000   0.2484218   0.2293101), wk =   0.0105820
        k(   12) = (   0.0000000   0.2484218  -0.3439652), wk =   0.0052910
        k(   13) = (   0.0000000   0.3726327   0.0000000), wk =   0.0052910
        k(   14) = (   0.0000000   0.3726327   0.1146551), wk =   0.0105820
        k(   15) = (   0.0000000   0.3726327   0.2293101), wk =   0.0105820
        k(   16) = (   0.0000000   0.3726327  -0.3439652), wk =   0.0052910
        k(   17) = (   0.1111111   0.0000000   0.0378080), wk =   0.0052910
        k(   18) = (   0.1111111   0.0000000   0.1524631), wk =   0.0052910
        k(   19) = (   0.1111111   0.0000000   0.2671181), wk =   0.0052910
        k(   20) = (   0.1111111   0.0000000  -0.3061572), wk =   0.0052910
        k(   21) = (   0.1111111   0.0000000  -0.1915021), wk =   0.0052910
        k(   22) = (   0.1111111   0.0000000  -0.0768471), wk =   0.0052910
        k(   23) = (   0.1111111   0.1242109   0.0378080), wk =   0.0105820
        k(   24) = (   0.1111111   0.1242109   0.1524631), wk =   0.0105820
        k(   25) = (   0.1111111   0.1242109   0.2671181), wk =   0.0105820
        k(   26) = (   0.1111111   0.1242109  -0.3061572), wk =   0.0105820
        k(   27) = (   0.1111111   0.1242109  -0.1915021), wk =   0.0105820
        k(   28) = (   0.1111111   0.1242109  -0.0768471), wk =   0.0105820
        k(   29) = (   0.1111111   0.2484218   0.0378080), wk =   0.0105820
        k(   30) = (   0.1111111   0.2484218   0.1524631), wk =   0.0105820
        k(   31) = (   0.1111111   0.2484218   0.2671181), wk =   0.0105820
        k(   32) = (   0.1111111   0.2484218  -0.3061572), wk =   0.0105820
        k(   33) = (   0.1111111   0.2484218  -0.1915021), wk =   0.0105820
        k(   34) = (   0.1111111   0.2484218  -0.0768471), wk =   0.0105820
        k(   35) = (   0.1111111   0.3726327   0.0378080), wk =   0.0105820
        k(   36) = (   0.1111111   0.3726327   0.1524631), wk =   0.0105820
        k(   37) = (   0.1111111   0.3726327   0.2671181), wk =   0.0105820
        k(   38) = (   0.1111111   0.3726327  -0.3061572), wk =   0.0105820
        k(   39) = (   0.1111111   0.3726327  -0.1915021), wk =   0.0105820
        k(   40) = (   0.1111111   0.3726327  -0.0768471), wk =   0.0105820
        k(   41) = (   0.2222222   0.0000000   0.0756160), wk =   0.0052910
        k(   42) = (   0.2222222   0.0000000   0.1902711), wk =   0.0052910
        k(   43) = (   0.2222222   0.0000000   0.3049261), wk =   0.0052910
        k(   44) = (   0.2222222   0.0000000  -0.2683492), wk =   0.0052910
        k(   45) = (   0.2222222   0.0000000  -0.1536941), wk =   0.0052910
        k(   46) = (   0.2222222   0.0000000  -0.0390391), wk =   0.0052910
        k(   47) = (   0.2222222   0.1242109   0.0756160), wk =   0.0105820
        k(   48) = (   0.2222222   0.1242109   0.1902711), wk =   0.0105820
        k(   49) = (   0.2222222   0.1242109   0.3049261), wk =   0.0105820
        k(   50) = (   0.2222222   0.1242109  -0.2683492), wk =   0.0105820
        k(   51) = (   0.2222222   0.1242109  -0.1536941), wk =   0.0105820
        k(   52) = (   0.2222222   0.1242109  -0.0390391), wk =   0.0105820
        k(   53) = (   0.2222222   0.2484218   0.0756160), wk =   0.0105820
        k(   54) = (   0.2222222   0.2484218   0.1902711), wk =   0.0105820
        k(   55) = (   0.2222222   0.2484218   0.3049261), wk =   0.0105820
        k(   56) = (   0.2222222   0.2484218  -0.2683492), wk =   0.0105820
        k(   57) = (   0.2222222   0.2484218  -0.1536941), wk =   0.0105820
        k(   58) = (   0.2222222   0.2484218  -0.0390391), wk =   0.0105820
        k(   59) = (   0.2222222   0.3726327   0.0756160), wk =   0.0105820
        k(   60) = (   0.2222222   0.3726327   0.1902711), wk =   0.0105820
        k(   61) = (   0.2222222   0.3726327   0.3049261), wk =   0.0105820
        k(   62) = (   0.2222222   0.3726327  -0.2683492), wk =   0.0105820
        k(   63) = (   0.2222222   0.3726327  -0.1536941), wk =   0.0105820
        k(   64) = (   0.2222222   0.3726327  -0.0390391), wk =   0.0105820
        k(   65) = (   0.3333333   0.0000000   0.1134240), wk =   0.0052910
        k(   66) = (   0.3333333   0.0000000   0.2280791), wk =   0.0052910
        k(   67) = (   0.3333333   0.0000000   0.3427341), wk =   0.0052910
        k(   68) = (   0.3333333   0.0000000  -0.2305412), wk =   0.0052910
        k(   69) = (   0.3333333   0.0000000  -0.1158861), wk =   0.0052910
        k(   70) = (   0.3333333   0.0000000  -0.0012311), wk =   0.0052910
        k(   71) = (   0.3333333   0.1242109   0.1134240), wk =   0.0105820
        k(   72) = (   0.3333333   0.1242109   0.2280791), wk =   0.0105820
        k(   73) = (   0.3333333   0.1242109   0.3427341), wk =   0.0105820
        k(   74) = (   0.3333333   0.1242109  -0.2305412), wk =   0.0105820
        k(   75) = (   0.3333333   0.1242109  -0.1158861), wk =   0.0105820
        k(   76) = (   0.3333333   0.1242109  -0.0012311), wk =   0.0105820
        k(   77) = (   0.3333333   0.2484218   0.1134240), wk =   0.0105820
        k(   78) = (   0.3333333   0.2484218   0.2280791), wk =   0.0105820
        k(   79) = (   0.3333333   0.2484218   0.3427341), wk =   0.0105820
        k(   80) = (   0.3333333   0.2484218  -0.2305412), wk =   0.0105820
        k(   81) = (   0.3333333   0.2484218  -0.1158861), wk =   0.0105820
        k(   82) = (   0.3333333   0.2484218  -0.0012311), wk =   0.0105820
        k(   83) = (   0.3333333   0.3726327   0.1134240), wk =   0.0105820
        k(   84) = (   0.3333333   0.3726327   0.2280791), wk =   0.0105820
        k(   85) = (   0.3333333   0.3726327   0.3427341), wk =   0.0105820
        k(   86) = (   0.3333333   0.3726327  -0.2305412), wk =   0.0105820
        k(   87) = (   0.3333333   0.3726327  -0.1158861), wk =   0.0105820
        k(   88) = (   0.3333333   0.3726327  -0.0012311), wk =   0.0105820
        k(   89) = (   0.4444444   0.0000000   0.1512320), wk =   0.0052910
        k(   90) = (   0.4444444   0.0000000   0.2658871), wk =   0.0052910
        k(   91) = (   0.4444444   0.0000000   0.3805421), wk =   0.0052910
        k(   92) = (   0.4444444   0.0000000  -0.1927332), wk =   0.0052910
        k(   93) = (   0.4444444   0.0000000  -0.0780782), wk =   0.0052910
        k(   94) = (   0.4444444   0.0000000   0.0365769), wk =   0.0052910
        k(   95) = (   0.4444444   0.1242109   0.1512320), wk =   0.0105820
        k(   96) = (   0.4444444   0.1242109   0.2658871), wk =   0.0105820
        k(   97) = (   0.4444444   0.1242109   0.3805421), wk =   0.0105820
        k(   98) = (   0.4444444   0.1242109  -0.1927332), wk =   0.0105820
        k(   99) = (   0.4444444   0.1242109  -0.0780782), wk =   0.0105820
        k(  100) = (   0.4444444   0.1242109   0.0365769), wk =   0.0105820
        k(  101) = (   0.4444444   0.2484218   0.1512320), wk =   0.0105820
        k(  102) = (   0.4444444   0.2484218   0.2658871), wk =   0.0105820
        k(  103) = (   0.4444444   0.2484218   0.3805421), wk =   0.0105820
        k(  104) = (   0.4444444   0.2484218  -0.1927332), wk =   0.0105820
        k(  105) = (   0.4444444   0.2484218  -0.0780782), wk =   0.0105820
        k(  106) = (   0.4444444   0.2484218   0.0365769), wk =   0.0105820
        k(  107) = (   0.4444444   0.3726327   0.1512320), wk =   0.0105820
        k(  108) = (   0.4444444   0.3726327   0.2658871), wk =   0.0105820
        k(  109) = (   0.4444444   0.3726327   0.3805421), wk =   0.0105820
        k(  110) = (   0.4444444   0.3726327  -0.1927332), wk =   0.0105820
        k(  111) = (   0.4444444   0.3726327  -0.0780782), wk =   0.0105820
        k(  112) = (   0.4444444   0.3726327   0.0365769), wk =   0.0105820

                       cryst. coord.
        k(    1) = (   0.0000000   0.0000000   0.0000000), wk =   0.0026455
        k(    2) = (   0.0000000   0.0000000   0.1666667), wk =   0.0052910
        k(    3) = (   0.0000000   0.0000000   0.3333333), wk =   0.0052910
        k(    4) = (   0.0000000   0.0000000  -0.5000000), wk =   0.0026455
        k(    5) = (   0.0000000   0.1428571   0.0000000), wk =   0.0052910
        k(    6) = (   0.0000000   0.1428571   0.1666667), wk =   0.0105820
        k(    7) = (   0.0000000   0.1428571   0.3333333), wk =   0.0105820
        k(    8) = (   0.0000000   0.1428571  -0.5000000), wk =   0.0052910
        k(    9) = (   0.0000000   0.2857143   0.0000000), wk =   0.0052910
        k(   10) = (   0.0000000   0.2857143   0.1666667), wk =   0.0105820
        k(   11) = (   0.0000000   0.2857143   0.3333333), wk =   0.0105820
        k(   12) = (   0.0000000   0.2857143  -0.5000000), wk =   0.0052910
        k(   13) = (   0.0000000   0.4285714   0.0000000), wk =   0.0052910
        k(   14) = (   0.0000000   0.4285714   0.1666667), wk =   0.0105820
        k(   15) = (   0.0000000   0.4285714   0.3333333), wk =   0.0105820
        k(   16) = (   0.0000000   0.4285714  -0.5000000), wk =   0.0052910
        k(   17) = (   0.1111111   0.0000000  -0.0000000), wk =   0.0052910
        k(   18) = (   0.1111111   0.0000000   0.1666667), wk =   0.0052910
        k(   19) = (   0.1111111   0.0000000   0.3333333), wk =   0.0052910
        k(   20) = (   0.1111111   0.0000000  -0.5000000), wk =   0.0052910
        k(   21) = (   0.1111111   0.0000000  -0.3333333), wk =   0.0052910
        k(   22) = (   0.1111111   0.0000000  -0.1666667), wk =   0.0052910
        k(   23) = (   0.1111111   0.1428571  -0.0000000), wk =   0.0105820
        k(   24) = (   0.1111111   0.1428571   0.1666667), wk =   0.0105820
        k(   25) = (   0.1111111   0.1428571   0.3333333), wk =   0.0105820
        k(   26) = (   0.1111111   0.1428571  -0.5000000), wk =   0.0105820
        k(   27) = (   0.1111111   0.1428571  -0.3333333), wk =   0.0105820
        k(   28) = (   0.1111111   0.1428571  -0.1666667), wk =   0.0105820
        k(   29) = (   0.1111111   0.2857143  -0.0000000), wk =   0.0105820
        k(   30) = (   0.1111111   0.2857143   0.1666667), wk =   0.0105820
        k(   31) = (   0.1111111   0.2857143   0.3333333), wk =   0.0105820
        k(   32) = (   0.1111111   0.2857143  -0.5000000), wk =   0.0105820
        k(   33) = (   0.1111111   0.2857143  -0.3333333), wk =   0.0105820
        k(   34) = (   0.1111111   0.2857143  -0.1666667), wk =   0.0105820
        k(   35) = (   0.1111111   0.4285714  -0.0000000), wk =   0.0105820
        k(   36) = (   0.1111111   0.4285714   0.1666667), wk =   0.0105820
        k(   37) = (   0.1111111   0.4285714   0.3333333), wk =   0.0105820
        k(   38) = (   0.1111111   0.4285714  -0.5000000), wk =   0.0105820
        k(   39) = (   0.1111111   0.4285714  -0.3333333), wk =   0.0105820
        k(   40) = (   0.1111111   0.4285714  -0.1666667), wk =   0.0105820
        k(   41) = (   0.2222222   0.0000000  -0.0000000), wk =   0.0052910
        k(   42) = (   0.2222222   0.0000000   0.1666667), wk =   0.0052910
        k(   43) = (   0.2222222   0.0000000   0.3333333), wk =   0.0052910
        k(   44) = (   0.2222222   0.0000000  -0.5000000), wk =   0.0052910
        k(   45) = (   0.2222222   0.0000000  -0.3333333), wk =   0.0052910
        k(   46) = (   0.2222222   0.0000000  -0.1666667), wk =   0.0052910
        k(   47) = (   0.2222222   0.1428571  -0.0000000), wk =   0.0105820
        k(   48) = (   0.2222222   0.1428571   0.1666667), wk =   0.0105820
        k(   49) = (   0.2222222   0.1428571   0.3333333), wk =   0.0105820
        k(   50) = (   0.2222222   0.1428571  -0.5000000), wk =   0.0105820
        k(   51) = (   0.2222222   0.1428571  -0.3333333), wk =   0.0105820
        k(   52) = (   0.2222222   0.1428571  -0.1666667), wk =   0.0105820
        k(   53) = (   0.2222222   0.2857143  -0.0000000), wk =   0.0105820
        k(   54) = (   0.2222222   0.2857143   0.1666667), wk =   0.0105820
        k(   55) = (   0.2222222   0.2857143   0.3333333), wk =   0.0105820
        k(   56) = (   0.2222222   0.2857143  -0.5000000), wk =   0.0105820
        k(   57) = (   0.2222222   0.2857143  -0.3333333), wk =   0.0105820
        k(   58) = (   0.2222222   0.2857143  -0.1666667), wk =   0.0105820
        k(   59) = (   0.2222222   0.4285714  -0.0000000), wk =   0.0105820
        k(   60) = (   0.2222222   0.4285714   0.1666667), wk =   0.0105820
        k(   61) = (   0.2222222   0.4285714   0.3333333), wk =   0.0105820
        k(   62) = (   0.2222222   0.4285714  -0.5000000), wk =   0.0105820
        k(   63) = (   0.2222222   0.4285714  -0.3333333), wk =   0.0105820
        k(   64) = (   0.2222222   0.4285714  -0.1666667), wk =   0.0105820
        k(   65) = (   0.3333333   0.0000000  -0.0000000), wk =   0.0052910
        k(   66) = (   0.3333333   0.0000000   0.1666667), wk =   0.0052910
        k(   67) = (   0.3333333   0.0000000   0.3333333), wk =   0.0052910
        k(   68) = (   0.3333333   0.0000000  -0.5000000), wk =   0.0052910
        k(   69) = (   0.3333333   0.0000000  -0.3333333), wk =   0.0052910
        k(   70) = (   0.3333333   0.0000000  -0.1666667), wk =   0.0052910
        k(   71) = (   0.3333333   0.1428571  -0.0000000), wk =   0.0105820
        k(   72) = (   0.3333333   0.1428571   0.1666667), wk =   0.0105820
        k(   73) = (   0.3333333   0.1428571   0.3333333), wk =   0.0105820
        k(   74) = (   0.3333333   0.1428571  -0.5000000), wk =   0.0105820
        k(   75) = (   0.3333333   0.1428571  -0.3333333), wk =   0.0105820
        k(   76) = (   0.3333333   0.1428571  -0.1666667), wk =   0.0105820
        k(   77) = (   0.3333333   0.2857143  -0.0000000), wk =   0.0105820
        k(   78) = (   0.3333333   0.2857143   0.1666667), wk =   0.0105820
        k(   79) = (   0.3333333   0.2857143   0.3333333), wk =   0.0105820
        k(   80) = (   0.3333333   0.2857143  -0.5000000), wk =   0.0105820
        k(   81) = (   0.3333333   0.2857143  -0.3333333), wk =   0.0105820
        k(   82) = (   0.3333333   0.2857143  -0.1666667), wk =   0.0105820
        k(   83) = (   0.3333333   0.4285714  -0.0000000), wk =   0.0105820
        k(   84) = (   0.3333333   0.4285714   0.1666667), wk =   0.0105820
        k(   85) = (   0.3333333   0.4285714   0.3333333), wk =   0.0105820
        k(   86) = (   0.3333333   0.4285714  -0.5000000), wk =   0.0105820
        k(   87) = (   0.3333333   0.4285714  -0.3333333), wk =   0.0105820
        k(   88) = (   0.3333333   0.4285714  -0.1666667), wk =   0.0105820
        k(   89) = (   0.4444444   0.0000000  -0.0000000), wk =   0.0052910
        k(   90) = (   0.4444444   0.0000000   0.1666667), wk =   0.0052910
        k(   91) = (   0.4444444   0.0000000   0.3333333), wk =   0.0052910
        k(   92) = (   0.4444444   0.0000000  -0.5000000), wk =   0.0052910
        k(   93) = (   0.4444444   0.0000000  -0.3333333), wk =   0.0052910
        k(   94) = (   0.4444444   0.0000000  -0.1666667), wk =   0.0052910
        k(   95) = (   0.4444444   0.1428571  -0.0000000), wk =   0.0105820
        k(   96) = (   0.4444444   0.1428571   0.1666667), wk =   0.0105820
        k(   97) = (   0.4444444   0.1428571   0.3333333), wk =   0.0105820
        k(   98) = (   0.4444444   0.1428571  -0.5000000), wk =   0.0105820
        k(   99) = (   0.4444444   0.1428571  -0.3333333), wk =   0.0105820
        k(  100) = (   0.4444444   0.1428571  -0.1666667), wk =   0.0105820
        k(  101) = (   0.4444444   0.2857143  -0.0000000), wk =   0.0105820
        k(  102) = (   0.4444444   0.2857143   0.1666667), wk =   0.0105820
        k(  103) = (   0.4444444   0.2857143   0.3333333), wk =   0.0105820
        k(  104) = (   0.4444444   0.2857143  -0.5000000), wk =   0.0105820
        k(  105) = (   0.4444444   0.2857143  -0.3333333), wk =   0.0105820
        k(  106) = (   0.4444444   0.2857143  -0.1666667), wk =   0.0105820
        k(  107) = (   0.4444444   0.4285714  -0.0000000), wk =   0.0105820
        k(  108) = (   0.4444444   0.4285714   0.1666667), wk =   0.0105820
        k(  109) = (   0.4444444   0.4285714   0.3333333), wk =   0.0105820
        k(  110) = (   0.4444444   0.4285714  -0.5000000), wk =   0.0105820
        k(  111) = (   0.4444444   0.4285714  -0.3333333), wk =   0.0105820
        k(  112) = (   0.4444444   0.4285714  -0.1666667), wk =   0.0105820

     Dense  grid:   257539 G-vectors     FFT dimensions: (  72,  80, 108)

     Smooth grid:    90967 G-vectors     FFT dimensions: (  48,  60,  75)

     Dynamical RAM for                 wfc:      12.16 MB

     Dynamical RAM for     wfc (w. buffer):    2736.11 MB

     Dynamical RAM for           str. fact:      11.79 MB

     Dynamical RAM for           local pot:       0.00 MB

     Dynamical RAM for          nlocal pot:      26.75 MB

     Dynamical RAM for                qrad:       6.42 MB

     Dynamical RAM for          rho,v,vnew:      52.05 MB

     Dynamical RAM for               rhoin:      17.35 MB

     Dynamical RAM for            rho*nmix:     125.75 MB

     Dynamical RAM for           G-vectors:      15.43 MB

     Dynamical RAM for          h,s,v(r/c):       0.90 MB

     Dynamical RAM for          <psi|beta>:       0.16 MB

     Dynamical RAM for                 psi:      24.32 MB

     Dynamical RAM for                hpsi:      24.32 MB

     Dynamical RAM for                spsi:      24.32 MB

     Dynamical RAM for      wfcinit/wfcrot:      24.43 MB

     Dynamical RAM for           addusdens:     848.82 MB

     Dynamical RAM for          addusforce:     919.64 MB

     Dynamical RAM for         addusstress:     870.44 MB

     Estimated static dynamical RAM per process >       2.84 GB

     Estimated max dynamical RAM per process >       3.86 GB

     Atomic positions and unit cell read from directory:
     ./out/aiida.save/
 

     Check: negative core charge=   -0.000002
     Generating pointlists ...
     new r_m :   0.1984 (alat units)  2.0733 (a.u.) for type    1
     new r_m :   0.1471 (alat units)  1.5370 (a.u.) for type    2
     new r_m :   0.1471 (alat units)  1.5370 (a.u.) for type    3

     The initial density is read from file :
     ./out/aiida.save/charge-density


     negative rho (up, down):  1.249E+00 3.803E-01
     Starting wfcs from file
     Checking if some PAW data can be deallocated... 

     total cpu time spent up to now is        8.7 secs

     per-process dynamical memory:   566.2 Mb

     Self-consistent Calculation
[tb_dev] Currently allocated     1.07E-04 Mbytes, locked:    0 /   2
[tb_pin] Currently allocated     0.00E+00 Mbytes, locked:    0 /   0

     iteration #  1     ecut=    50.00 Ry     beta= 0.20
     Davidson diagonalization with overlap

---- Real-time Memory Report at c_bands before calling an iterative solver
          1063 MiB given to the printing process from OS
           568 MiB allocation reported by mallinfo(arena+hblkhd)
         58939 MiB available memory on the node where the printing process lives
     GPU memory used/free/total (MiB): 1390 / 14890 / 16280
------------------
     ethr =  1.00E-05,  avg # of iterations =  6.4

     negative rho (up, down):  1.282E+00 3.786E-01

     total cpu time spent up to now is       42.8 secs

     total energy              =   -1775.96882026 Ry
     estimated scf accuracy    <       0.05694979 Ry

     total magnetization       =    12.00 Bohr mag/cell
     absolute magnetization    =    14.56 Bohr mag/cell
[tb_dev] Currently allocated     9.92E+00 Mbytes, locked:    0 /  11
[tb_pin] Currently allocated     0.00E+00 Mbytes, locked:    0 /   0

     iteration #  2     ecut=    50.00 Ry     beta= 0.20
     Davidson diagonalization with overlap

---- Real-time Memory Report at c_bands before calling an iterative solver
          4434 MiB given to the printing process from OS
          -441 MiB allocation reported by mallinfo(arena+hblkhd)
         52347 MiB available memory on the node where the printing process lives
     GPU memory used/free/total (MiB): 3064 / 13216 / 16280
------------------
     ethr =  4.91E-05,  avg # of iterations =  5.4

     negative rho (up, down):  1.272E+00 3.657E-01

     total cpu time spent up to now is       66.7 secs

     total energy              =   -1775.92527356 Ry
     estimated scf accuracy    <       0.07042344 Ry

     total magnetization       =    12.00 Bohr mag/cell
     absolute magnetization    =    14.38 Bohr mag/cell
[tb_dev] Currently allocated     9.92E+00 Mbytes, locked:    0 /  11
[tb_pin] Currently allocated     0.00E+00 Mbytes, locked:    0 /   0

     iteration #  3     ecut=    50.00 Ry     beta= 0.20
     Davidson diagonalization with overlap

---- Real-time Memory Report at c_bands before calling an iterative solver
          4576 MiB given to the printing process from OS
          -409 MiB allocation reported by mallinfo(arena+hblkhd)
         52317 MiB available memory on the node where the printing process lives
     GPU memory used/free/total (MiB): 3064 / 13216 / 16280
------------------
     ethr =  4.91E-05,  avg # of iterations =  4.0

     negative rho (up, down):  1.259E+00 3.735E-01

     total cpu time spent up to now is       87.4 secs

     total energy              =   -1775.92441606 Ry
     estimated scf accuracy    <       0.11143495 Ry

     total magnetization       =    12.00 Bohr mag/cell
     absolute magnetization    =    13.75 Bohr mag/cell
[tb_dev] Currently allocated     9.92E+00 Mbytes, locked:    0 /  11
[tb_pin] Currently allocated     0.00E+00 Mbytes, locked:    0 /   0

     iteration #  4     ecut=    50.00 Ry     beta= 0.20
     Davidson diagonalization with overlap

---- Real-time Memory Report at c_bands before calling an iterative solver
          4622 MiB given to the printing process from OS
          -383 MiB allocation reported by mallinfo(arena+hblkhd)
         52293 MiB available memory on the node where the printing process lives
     GPU memory used/free/total (MiB): 3064 / 13216 / 16280
------------------
     ethr =  4.91E-05,  avg # of iterations =  3.0

     negative rho (up, down):  1.259E+00 3.739E-01

     total cpu time spent up to now is      106.5 secs

     total energy              =   -1775.92586758 Ry
     estimated scf accuracy    <       0.00337531 Ry

     total magnetization       =    12.00 Bohr mag/cell
     absolute magnetization    =    14.25 Bohr mag/cell
[tb_dev] Currently allocated     9.92E+00 Mbytes, locked:    0 /  11
[tb_pin] Currently allocated     0.00E+00 Mbytes, locked:    0 /   0

     iteration #  5     ecut=    50.00 Ry     beta= 0.20
     Davidson diagonalization with overlap

---- Real-time Memory Report at c_bands before calling an iterative solver
          4654 MiB given to the printing process from OS
          -354 MiB allocation reported by mallinfo(arena+hblkhd)
         52264 MiB available memory on the node where the printing process lives
     GPU memory used/free/total (MiB): 3064 / 13216 / 16280
------------------
     ethr =  2.91E-06,  avg # of iterations =  2.5

     negative rho (up, down):  1.261E+00 3.735E-01

     total cpu time spent up to now is      125.0 secs

     total energy              =   -1775.92600168 Ry
     estimated scf accuracy    <       0.00880505 Ry

     total magnetization       =    12.00 Bohr mag/cell
     absolute magnetization    =    14.33 Bohr mag/cell
[tb_dev] Currently allocated     9.92E+00 Mbytes, locked:    0 /  11
[tb_pin] Currently allocated     0.00E+00 Mbytes, locked:    0 /   0

     iteration #  6     ecut=    50.00 Ry     beta= 0.20
     Davidson diagonalization with overlap

---- Real-time Memory Report at c_bands before calling an iterative solver
          4686 MiB given to the printing process from OS
          -320 MiB allocation reported by mallinfo(arena+hblkhd)
         52230 MiB available memory on the node where the printing process lives
     GPU memory used/free/total (MiB): 3064 / 13216 / 16280
------------------
     ethr =  2.91E-06,  avg # of iterations =  1.0

     negative rho (up, down):  1.261E+00 3.735E-01

     total cpu time spent up to now is      141.7 secs

     total energy              =   -1775.92601077 Ry
     estimated scf accuracy    <       0.00759464 Ry

     total magnetization       =    12.00 Bohr mag/cell
     absolute magnetization    =    14.32 Bohr mag/cell
[tb_dev] Currently allocated     9.92E+00 Mbytes, locked:    0 /  11
[tb_pin] Currently allocated     0.00E+00 Mbytes, locked:    0 /   0

     iteration #  7     ecut=    50.00 Ry     beta= 0.20
     Davidson diagonalization with overlap

---- Real-time Memory Report at c_bands before calling an iterative solver
          4711 MiB given to the printing process from OS
          -295 MiB allocation reported by mallinfo(arena+hblkhd)
         52207 MiB available memory on the node where the printing process lives
     GPU memory used/free/total (MiB): 3064 / 13216 / 16280
------------------
     ethr =  2.91E-06,  avg # of iterations =  1.0

     negative rho (up, down):  1.257E+00 3.735E-01

     total cpu time spent up to now is      158.3 secs

     total energy              =   -1775.92610161 Ry
     estimated scf accuracy    <       0.00757964 Ry

     total magnetization       =    12.00 Bohr mag/cell
     absolute magnetization    =    14.32 Bohr mag/cell
[tb_dev] Currently allocated     9.92E+00 Mbytes, locked:    0 /  11
[tb_pin] Currently allocated     0.00E+00 Mbytes, locked:    0 /   0

     iteration #  8     ecut=    50.00 Ry     beta= 0.20
     Davidson diagonalization with overlap

---- Real-time Memory Report at c_bands before calling an iterative solver
          4748 MiB given to the printing process from OS
          -258 MiB allocation reported by mallinfo(arena+hblkhd)
         52169 MiB available memory on the node where the printing process lives
     GPU memory used/free/total (MiB): 3064 / 13216 / 16280
------------------
     ethr =  2.91E-06,  avg # of iterations =  2.1

     negative rho (up, down):  1.247E+00 3.747E-01

     total cpu time spent up to now is      176.1 secs

     total energy              =   -1775.92594550 Ry
     estimated scf accuracy    <       0.00400688 Ry

     total magnetization       =    12.00 Bohr mag/cell
     absolute magnetization    =    14.27 Bohr mag/cell
[tb_dev] Currently allocated     9.92E+00 Mbytes, locked:    0 /  11
[tb_pin] Currently allocated     0.00E+00 Mbytes, locked:    0 /   0

     iteration #  9     ecut=    50.00 Ry     beta= 0.20
     Davidson diagonalization with overlap

---- Real-time Memory Report at c_bands before calling an iterative solver
          4779 MiB given to the printing process from OS
          -227 MiB allocation reported by mallinfo(arena+hblkhd)
         52138 MiB available memory on the node where the printing process lives
     GPU memory used/free/total (MiB): 3064 / 13216 / 16280
------------------
     ethr =  2.91E-06,  avg # of iterations =  3.5

     negative rho (up, down):  1.227E+00 3.785E-01

     total cpu time spent up to now is      196.1 secs

     total energy              =   -1775.92653753 Ry
     estimated scf accuracy    <       0.00089516 Ry

     total magnetization       =    12.00 Bohr mag/cell
     absolute magnetization    =    14.16 Bohr mag/cell
[tb_dev] Currently allocated     9.92E+00 Mbytes, locked:    0 /  11
[tb_pin] Currently allocated     0.00E+00 Mbytes, locked:    0 /   0

     iteration # 10     ecut=    50.00 Ry     beta= 0.20
     Davidson diagonalization with overlap

---- Real-time Memory Report at c_bands before calling an iterative solver
          4808 MiB given to the printing process from OS
          -199 MiB allocation reported by mallinfo(arena+hblkhd)
         52108 MiB available memory on the node where the printing process lives
     GPU memory used/free/total (MiB): 3064 / 13216 / 16280
------------------
     ethr =  7.72E-07,  avg # of iterations =  4.0

     negative rho (up, down):  1.276E+00 3.697E-01

     total cpu time spent up to now is      216.8 secs

     total energy              =   -1775.92510254 Ry
     estimated scf accuracy    <       0.00438878 Ry

     total magnetization       =    12.00 Bohr mag/cell
     absolute magnetization    =    14.15 Bohr mag/cell
[tb_dev] Currently allocated     9.92E+00 Mbytes, locked:    0 /  11
[tb_pin] Currently allocated     0.00E+00 Mbytes, locked:    0 /   0

     iteration # 11     ecut=    50.00 Ry     beta= 0.20
     Davidson diagonalization with overlap

---- Real-time Memory Report at c_bands before calling an iterative solver
          4833 MiB given to the printing process from OS
          -176 MiB allocation reported by mallinfo(arena+hblkhd)
         52086 MiB available memory on the node where the printing process lives
     GPU memory used/free/total (MiB): 3064 / 13216 / 16280
------------------
     ethr =  7.72E-07,  avg # of iterations =  4.0

     negative rho (up, down):  1.288E+00 3.677E-01

     total cpu time spent up to now is      238.2 secs

     total energy              =   -1775.92551556 Ry
     estimated scf accuracy    <       0.01222549 Ry

     total magnetization       =    12.00 Bohr mag/cell
     absolute magnetization    =    14.32 Bohr mag/cell
[tb_dev] Currently allocated     9.92E+00 Mbytes, locked:    0 /  11
[tb_pin] Currently allocated     0.00E+00 Mbytes, locked:    0 /   0

     iteration # 12     ecut=    50.00 Ry     beta= 0.20
     Davidson diagonalization with overlap

---- Real-time Memory Report at c_bands before calling an iterative solver
          4856 MiB given to the printing process from OS
          -154 MiB allocation reported by mallinfo(arena+hblkhd)
         52065 MiB available memory on the node where the printing process lives
     GPU memory used/free/total (MiB): 3064 / 13216 / 16280
------------------
     ethr =  7.72E-07,  avg # of iterations =  4.5

     negative rho (up, down):  1.281E+00 3.694E-01

     total cpu time spent up to now is      259.9 secs

     total energy              =   -1775.92543350 Ry
     estimated scf accuracy    <       0.04844497 Ry

     total magnetization       =    12.00 Bohr mag/cell
     absolute magnetization    =    14.44 Bohr mag/cell
[tb_dev] Currently allocated     9.92E+00 Mbytes, locked:    0 /  11
[tb_pin] Currently allocated     0.00E+00 Mbytes, locked:    0 /   0

     iteration # 13     ecut=    50.00 Ry     beta= 0.20
     Davidson diagonalization with overlap

---- Real-time Memory Report at c_bands before calling an iterative solver
          4884 MiB given to the printing process from OS
          -131 MiB allocation reported by mallinfo(arena+hblkhd)
         52041 MiB available memory on the node where the printing process lives
     GPU memory used/free/total (MiB): 3064 / 13216 / 16280
------------------
     ethr =  7.72E-07,  avg # of iterations =  4.5

     negative rho (up, down):  1.274E+00 3.709E-01

     total cpu time spent up to now is      281.4 secs

     total energy              =   -1775.92567245 Ry
     estimated scf accuracy    <       0.01598773 Ry

     total magnetization       =    12.00 Bohr mag/cell
     absolute magnetization    =    14.35 Bohr mag/cell
[tb_dev] Currently allocated     9.92E+00 Mbytes, locked:    0 /  11
[tb_pin] Currently allocated     0.00E+00 Mbytes, locked:    0 /   0

     iteration # 14     ecut=    50.00 Ry     beta= 0.20
     Davidson diagonalization with overlap

---- Real-time Memory Report at c_bands before calling an iterative solver
          4904 MiB given to the printing process from OS
          -108 MiB allocation reported by mallinfo(arena+hblkhd)
         52020 MiB available memory on the node where the printing process lives
     GPU memory used/free/total (MiB): 3064 / 13216 / 16280
------------------
     ethr =  7.72E-07,  avg # of iterations =  3.0

     negative rho (up, down):  1.270E+00 3.726E-01

     total cpu time spent up to now is      300.6 secs

     total energy              =   -1775.92600664 Ry
     estimated scf accuracy    <       0.01030645 Ry

     total magnetization       =    12.00 Bohr mag/cell
     absolute magnetization    =    14.32 Bohr mag/cell
[tb_dev] Currently allocated     9.92E+00 Mbytes, locked:    0 /  11
[tb_pin] Currently allocated     0.00E+00 Mbytes, locked:    0 /   0

     iteration # 15     ecut=    50.00 Ry     beta= 0.20
     Davidson diagonalization with overlap

---- Real-time Memory Report at c_bands before calling an iterative solver
          4932 MiB given to the printing process from OS
           -86 MiB allocation reported by mallinfo(arena+hblkhd)
         51996 MiB available memory on the node where the printing process lives
     GPU memory used/free/total (MiB): 3064 / 13216 / 16280
------------------
     ethr =  7.72E-07,  avg # of iterations =  1.5

     negative rho (up, down):  1.264E+00 3.747E-01

     total cpu time spent up to now is      317.6 secs

     total energy              =   -1775.92650224 Ry
     estimated scf accuracy    <       0.01149640 Ry

     total magnetization       =    12.00 Bohr mag/cell
     absolute magnetization    =    14.33 Bohr mag/cell
[tb_dev] Currently allocated     9.92E+00 Mbytes, locked:    0 /  11
[tb_pin] Currently allocated     0.00E+00 Mbytes, locked:    0 /   0

     iteration # 16     ecut=    50.00 Ry     beta= 0.20
     Davidson diagonalization with overlap

---- Real-time Memory Report at c_bands before calling an iterative solver
          4958 MiB given to the printing process from OS
           -63 MiB allocation reported by mallinfo(arena+hblkhd)
         51976 MiB available memory on the node where the printing process lives
     GPU memory used/free/total (MiB): 3064 / 13216 / 16280
------------------
     ethr =  7.72E-07,  avg # of iterations =  3.0

     negative rho (up, down):  1.261E+00 3.751E-01

     total cpu time spent up to now is      336.8 secs

     total energy              =   -1775.92662037 Ry
     estimated scf accuracy    <       0.01966268 Ry

     total magnetization       =    12.00 Bohr mag/cell
     absolute magnetization    =    14.38 Bohr mag/cell
[tb_dev] Currently allocated     9.92E+00 Mbytes, locked:    0 /  11
[tb_pin] Currently allocated     0.00E+00 Mbytes, locked:    0 /   0

     iteration # 17     ecut=    50.00 Ry     beta= 0.20
     Davidson diagonalization with overlap

---- Real-time Memory Report at c_bands before calling an iterative solver
          4980 MiB given to the printing process from OS
           -40 MiB allocation reported by mallinfo(arena+hblkhd)
         51953 MiB available memory on the node where the printing process lives
     GPU memory used/free/total (MiB): 3064 / 13216 / 16280
------------------
     ethr =  7.72E-07,  avg # of iterations =  1.0

     negative rho (up, down):  1.260E+00 3.754E-01

     total cpu time spent up to now is      353.2 secs

     total energy              =   -1775.92668363 Ry
     estimated scf accuracy    <       0.02060240 Ry

     total magnetization       =    12.00 Bohr mag/cell
     absolute magnetization    =    14.37 Bohr mag/cell
[tb_dev] Currently allocated     9.92E+00 Mbytes, locked:    0 /  11
[tb_pin] Currently allocated     0.00E+00 Mbytes, locked:    0 /   0

     iteration # 18     ecut=    50.00 Ry     beta= 0.20
     Davidson diagonalization with overlap

---- Real-time Memory Report at c_bands before calling an iterative solver
          5003 MiB given to the printing process from OS
            10 MiB allocation reported by mallinfo(arena+hblkhd)
         51915 MiB available memory on the node where the printing process lives
     GPU memory used/free/total (MiB): 3064 / 13216 / 16280
------------------
     ethr =  7.72E-07,  avg # of iterations =  1.0

     negative rho (up, down):  1.259E+00 3.758E-01

     total cpu time spent up to now is      369.6 secs

     total energy              =   -1775.92675810 Ry
     estimated scf accuracy    <       0.02092544 Ry

     total magnetization       =    12.00 Bohr mag/cell
     absolute magnetization    =    14.37 Bohr mag/cell
[tb_dev] Currently allocated     9.92E+00 Mbytes, locked:    0 /  11
[tb_pin] Currently allocated     0.00E+00 Mbytes, locked:    0 /   0

     iteration # 19     ecut=    50.00 Ry     beta= 0.20
     Davidson diagonalization with overlap

---- Real-time Memory Report at c_bands before calling an iterative solver
          5026 MiB given to the printing process from OS
            32 MiB allocation reported by mallinfo(arena+hblkhd)
         51893 MiB available memory on the node where the printing process lives
     GPU memory used/free/total (MiB): 3064 / 13216 / 16280
------------------
     ethr =  7.72E-07,  avg # of iterations =  1.0

     negative rho (up, down):  1.254E+00 3.764E-01

     total cpu time spent up to now is      385.9 secs

     total energy              =   -1775.92664018 Ry
     estimated scf accuracy    <       0.02235739 Ry

     total magnetization       =    12.00 Bohr mag/cell
     absolute magnetization    =    14.38 Bohr mag/cell
[tb_dev] Currently allocated     9.92E+00 Mbytes, locked:    0 /  11
[tb_pin] Currently allocated     0.00E+00 Mbytes, locked:    0 /   0

     iteration # 20     ecut=    50.00 Ry     beta= 0.20
     Davidson diagonalization with overlap

---- Real-time Memory Report at c_bands before calling an iterative solver
          5051 MiB given to the printing process from OS
            55 MiB allocation reported by mallinfo(arena+hblkhd)
         51867 MiB available memory on the node where the printing process lives
     GPU memory used/free/total (MiB): 3064 / 13216 / 16280
------------------
     ethr =  7.72E-07,  avg # of iterations =  2.0

     negative rho (up, down):  1.251E+00 3.771E-01

     total cpu time spent up to now is      404.0 secs

     total energy              =   -1775.92655013 Ry
     estimated scf accuracy    <       0.02496106 Ry

     total magnetization       =    12.00 Bohr mag/cell
     absolute magnetization    =    14.38 Bohr mag/cell
[tb_dev] Currently allocated     9.92E+00 Mbytes, locked:    0 /  11
[tb_pin] Currently allocated     0.00E+00 Mbytes, locked:    0 /   0

     iteration # 21     ecut=    50.00 Ry     beta= 0.20
     Davidson diagonalization with overlap

---- Real-time Memory Report at c_bands before calling an iterative solver
          5077 MiB given to the printing process from OS
            78 MiB allocation reported by mallinfo(arena+hblkhd)
         51841 MiB available memory on the node where the printing process lives
     GPU memory used/free/total (MiB): 3064 / 13216 / 16280
------------------
     ethr =  7.72E-07,  avg # of iterations =  2.9

     negative rho (up, down):  1.237E+00 3.820E-01

     total cpu time spent up to now is      423.0 secs

     total energy              =   -1775.92718817 Ry
     estimated scf accuracy    <       0.01464842 Ry

     total magnetization       =    12.00 Bohr mag/cell
     absolute magnetization    =    14.32 Bohr mag/cell
[tb_dev] Currently allocated     9.92E+00 Mbytes, locked:    0 /  11
[tb_pin] Currently allocated     0.00E+00 Mbytes, locked:    0 /   0

     iteration # 22     ecut=    50.00 Ry     beta= 0.20
     Davidson diagonalization with overlap

---- Real-time Memory Report at c_bands before calling an iterative solver
          5099 MiB given to the printing process from OS
           100 MiB allocation reported by mallinfo(arena+hblkhd)
         51819 MiB available memory on the node where the printing process lives
     GPU memory used/free/total (MiB): 3064 / 13216 / 16280
------------------
     ethr =  7.72E-07,  avg # of iterations =  3.0

     negative rho (up, down):  1.237E+00 3.821E-01

     total cpu time spent up to now is      442.6 secs

     total energy              =   -1775.92698829 Ry
     estimated scf accuracy    <       0.01919591 Ry

     total magnetization       =    12.00 Bohr mag/cell
     absolute magnetization    =    14.36 Bohr mag/cell
[tb_dev] Currently allocated     9.92E+00 Mbytes, locked:    0 /  11
[tb_pin] Currently allocated     0.00E+00 Mbytes, locked:    0 /   0

     iteration # 23     ecut=    50.00 Ry     beta= 0.20
     Davidson diagonalization with overlap

---- Real-time Memory Report at c_bands before calling an iterative solver
          5125 MiB given to the printing process from OS
           123 MiB allocation reported by mallinfo(arena+hblkhd)
         51795 MiB available memory on the node where the printing process lives
     GPU memory used/free/total (MiB): 3064 / 13216 / 16280
------------------
     ethr =  7.72E-07,  avg # of iterations =  2.5

     negative rho (up, down):  1.237E+00 3.827E-01

     total cpu time spent up to now is      461.3 secs

     total energy              =   -1775.92692362 Ry
     estimated scf accuracy    <       0.01302740 Ry

     total magnetization       =    12.00 Bohr mag/cell
     absolute magnetization    =    14.33 Bohr mag/cell
[tb_dev] Currently allocated     9.92E+00 Mbytes, locked:    0 /  11
[tb_pin] Currently allocated     0.00E+00 Mbytes, locked:    0 /   0

     iteration # 24     ecut=    50.00 Ry     beta= 0.20
     Davidson diagonalization with overlap

---- Real-time Memory Report at c_bands before calling an iterative solver
          5150 MiB given to the printing process from OS
           146 MiB allocation reported by mallinfo(arena+hblkhd)
         51769 MiB available memory on the node where the printing process lives
     GPU memory used/free/total (MiB): 3064 / 13216 / 16280
------------------
     ethr =  7.72E-07,  avg # of iterations =  3.0

     negative rho (up, down):  1.237E+00 3.815E-01

     total cpu time spent up to now is      480.5 secs

     total energy              =   -1775.92702439 Ry
     estimated scf accuracy    <       0.02022895 Ry

     total magnetization       =    12.00 Bohr mag/cell
     absolute magnetization    =    14.40 Bohr mag/cell
[tb_dev] Currently allocated     9.92E+00 Mbytes, locked:    0 /  11
[tb_pin] Currently allocated     0.00E+00 Mbytes, locked:    0 /   0

     iteration # 25     ecut=    50.00 Ry     beta= 0.20
     Davidson diagonalization with overlap

---- Real-time Memory Report at c_bands before calling an iterative solver
          5176 MiB given to the printing process from OS
           149 MiB allocation reported by mallinfo(arena+hblkhd)
         51768 MiB available memory on the node where the printing process lives
     GPU memory used/free/total (MiB): 3064 / 13216 / 16280
------------------
     ethr =  7.72E-07,  avg # of iterations =  3.2

     negative rho (up, down):  1.229E+00 3.829E-01

     total cpu time spent up to now is      499.9 secs

     total energy              =   -1775.92737417 Ry
     estimated scf accuracy    <       0.00977225 Ry

     total magnetization       =    12.00 Bohr mag/cell
     absolute magnetization    =    14.33 Bohr mag/cell
[tb_dev] Currently allocated     9.92E+00 Mbytes, locked:    0 /  11
[tb_pin] Currently allocated     0.00E+00 Mbytes, locked:    0 /   0

     iteration # 26     ecut=    50.00 Ry     beta= 0.20
     Davidson diagonalization with overlap

---- Real-time Memory Report at c_bands before calling an iterative solver
          5201 MiB given to the printing process from OS
           191 MiB allocation reported by mallinfo(arena+hblkhd)
         51721 MiB available memory on the node where the printing process lives
     GPU memory used/free/total (MiB): 3064 / 13216 / 16280
------------------
     c_bands:  1 eigenvalues not converged
     ethr =  7.72E-07,  avg # of iterations =  2.5

     negative rho (up, down):  1.228E+00 3.829E-01

     total cpu time spent up to now is      518.4 secs

     total energy              =   -1775.92737919 Ry
     estimated scf accuracy    <       0.01394400 Ry

     total magnetization       =    12.00 Bohr mag/cell
     absolute magnetization    =    14.30 Bohr mag/cell
[tb_dev] Currently allocated     9.92E+00 Mbytes, locked:    0 /  11
[tb_pin] Currently allocated     0.00E+00 Mbytes, locked:    0 /   0

     iteration # 27     ecut=    50.00 Ry     beta= 0.20
     Davidson diagonalization with overlap

---- Real-time Memory Report at c_bands before calling an iterative solver
          5224 MiB given to the printing process from OS
           214 MiB allocation reported by mallinfo(arena+hblkhd)
         51699 MiB available memory on the node where the printing process lives
     GPU memory used/free/total (MiB): 3064 / 13216 / 16280
------------------
     ethr =  7.72E-07,  avg # of iterations =  1.0

     negative rho (up, down):  1.223E+00 3.836E-01

     total cpu time spent up to now is      534.7 secs

     total energy              =   -1775.92751756 Ry
     estimated scf accuracy    <       0.01390252 Ry

     total magnetization       =    12.00 Bohr mag/cell
     absolute magnetization    =    14.30 Bohr mag/cell
[tb_dev] Currently allocated     9.92E+00 Mbytes, locked:    0 /  11
[tb_pin] Currently allocated     0.00E+00 Mbytes, locked:    0 /   0

     iteration # 28     ecut=    50.00 Ry     beta= 0.20
     Davidson diagonalization with overlap

---- Real-time Memory Report at c_bands before calling an iterative solver
          5252 MiB given to the printing process from OS
           236 MiB allocation reported by mallinfo(arena+hblkhd)
         51675 MiB available memory on the node where the printing process lives
     GPU memory used/free/total (MiB): 3064 / 13216 / 16280
------------------
     ethr =  7.72E-07,  avg # of iterations =  2.7

     negative rho (up, down):  1.237E+00 3.806E-01

     total cpu time spent up to now is      553.4 secs

     total energy              =   -1775.92700168 Ry
     estimated scf accuracy    <       0.01816324 Ry

     total magnetization       =    12.00 Bohr mag/cell
     absolute magnetization    =    14.25 Bohr mag/cell
[tb_dev] Currently allocated     9.92E+00 Mbytes, locked:    0 /  11
[tb_pin] Currently allocated     0.00E+00 Mbytes, locked:    0 /   0

     iteration # 29     ecut=    50.00 Ry     beta= 0.20
     Davidson diagonalization with overlap

---- Real-time Memory Report at c_bands before calling an iterative solver
          5275 MiB given to the printing process from OS
           259 MiB allocation reported by mallinfo(arena+hblkhd)
         51653 MiB available memory on the node where the printing process lives
     GPU memory used/free/total (MiB): 3064 / 13216 / 16280
------------------
     ethr =  7.72E-07,  avg # of iterations =  3.5

     negative rho (up, down):  1.304E+00 3.639E-01

     total cpu time spent up to now is      573.4 secs

     total energy              =   -1775.92420968 Ry
     estimated scf accuracy    <       0.01032074 Ry

     total magnetization       =    12.00 Bohr mag/cell
     absolute magnetization    =    14.32 Bohr mag/cell
[tb_dev] Currently allocated     9.92E+00 Mbytes, locked:    0 /  11
[tb_pin] Currently allocated     0.00E+00 Mbytes, locked:    0 /   0

     iteration # 30     ecut=    50.00 Ry     beta= 0.20
     Davidson diagonalization with overlap

---- Real-time Memory Report at c_bands before calling an iterative solver
          5300 MiB given to the printing process from OS
           282 MiB allocation reported by mallinfo(arena+hblkhd)
         51630 MiB available memory on the node where the printing process lives
     GPU memory used/free/total (MiB): 3064 / 13216 / 16280
------------------
     ethr =  7.72E-07,  avg # of iterations =  5.5

     negative rho (up, down):  1.180E+00 3.954E-01

     total cpu time spent up to now is      601.2 secs

     total energy              =   -1775.92829793 Ry
     estimated scf accuracy    <       0.14344277 Ry

     total magnetization       =    12.00 Bohr mag/cell
     absolute magnetization    =    14.63 Bohr mag/cell
[tb_dev] Currently allocated     9.92E+00 Mbytes, locked:    0 /  11
[tb_pin] Currently allocated     0.00E+00 Mbytes, locked:    0 /   0

     iteration # 31     ecut=    50.00 Ry     beta= 0.20
     Davidson diagonalization with overlap

---- Real-time Memory Report at c_bands before calling an iterative solver
          5326 MiB given to the printing process from OS
           304 MiB allocation reported by mallinfo(arena+hblkhd)
         51606 MiB available memory on the node where the printing process lives
     GPU memory used/free/total (MiB): 3064 / 13216 / 16280
------------------
     ethr =  7.72E-07,  avg # of iterations =  6.0

     negative rho (up, down):  1.190E+00 3.901E-01

     total cpu time spent up to now is      630.9 secs

     total energy              =   -1775.93006487 Ry
     estimated scf accuracy    <       0.20758757 Ry

     total magnetization       =    12.00 Bohr mag/cell
     absolute magnetization    =    14.05 Bohr mag/cell
[tb_dev] Currently allocated     9.92E+00 Mbytes, locked:    0 /  11
[tb_pin] Currently allocated     0.00E+00 Mbytes, locked:    0 /   0

     iteration # 32     ecut=    50.00 Ry     beta= 0.20
     Davidson diagonalization with overlap

---- Real-time Memory Report at c_bands before calling an iterative solver
          5349 MiB given to the printing process from OS
           327 MiB allocation reported by mallinfo(arena+hblkhd)
         51585 MiB available memory on the node where the printing process lives
     GPU memory used/free/total (MiB): 3064 / 13216 / 16280
------------------
     ethr =  7.72E-07,  avg # of iterations =  5.0

     negative rho (up, down):  1.250E+00 3.755E-01

     total cpu time spent up to now is      653.3 secs

     total energy              =   -1775.92481921 Ry
     estimated scf accuracy    <       0.16610262 Ry

     total magnetization       =    12.00 Bohr mag/cell
     absolute magnetization    =    13.76 Bohr mag/cell
[tb_dev] Currently allocated     9.92E+00 Mbytes, locked:    0 /  11
[tb_pin] Currently allocated     0.00E+00 Mbytes, locked:    0 /   0

     iteration # 33     ecut=    50.00 Ry     beta= 0.20
     Davidson diagonalization with overlap

---- Real-time Memory Report at c_bands before calling an iterative solver
          5377 MiB given to the printing process from OS
           354 MiB allocation reported by mallinfo(arena+hblkhd)
         51555 MiB available memory on the node where the printing process lives
     GPU memory used/free/total (MiB): 3064 / 13216 / 16280
------------------
     ethr =  7.72E-07,  avg # of iterations =  4.8

     negative rho (up, down):  1.253E+00 3.742E-01

     total cpu time spent up to now is      678.0 secs

     total energy              =   -1775.92643841 Ry
     estimated scf accuracy    <       0.00475219 Ry

     total magnetization       =    12.00 Bohr mag/cell
     absolute magnetization    =    14.21 Bohr mag/cell
[tb_dev] Currently allocated     9.92E+00 Mbytes, locked:    0 /  11
[tb_pin] Currently allocated     0.00E+00 Mbytes, locked:    0 /   0

     iteration # 34     ecut=    50.00 Ry     beta= 0.20
     Davidson diagonalization with overlap

---- Real-time Memory Report at c_bands before calling an iterative solver
          5399 MiB given to the printing process from OS
           377 MiB allocation reported by mallinfo(arena+hblkhd)
         51533 MiB available memory on the node where the printing process lives
     GPU memory used/free/total (MiB): 3064 / 13216 / 16280
------------------
     ethr =  7.72E-07,  avg # of iterations =  1.5

     negative rho (up, down):  1.263E+00 3.720E-01

     total cpu time spent up to now is      695.1 secs

     total energy              =   -1775.92638329 Ry
     estimated scf accuracy    <       0.00559585 Ry

     total magnetization       =    12.00 Bohr mag/cell
     absolute magnetization    =    14.21 Bohr mag/cell
[tb_dev] Currently allocated     9.92E+00 Mbytes, locked:    0 /  11
[tb_pin] Currently allocated     0.00E+00 Mbytes, locked:    0 /   0

     iteration # 35     ecut=    50.00 Ry     beta= 0.20
     Davidson diagonalization with overlap

---- Real-time Memory Report at c_bands before calling an iterative solver
          5422 MiB given to the printing process from OS
           404 MiB allocation reported by mallinfo(arena+hblkhd)
         51506 MiB available memory on the node where the printing process lives
     GPU memory used/free/total (MiB): 3064 / 13216 / 16280
------------------
     ethr =  7.72E-07,  avg # of iterations =  3.0

     negative rho (up, down):  1.256E+00 3.737E-01

     total cpu time spent up to now is      714.4 secs

     total energy              =   -1775.92645858 Ry
     estimated scf accuracy    <       0.00897504 Ry

     total magnetization       =    12.00 Bohr mag/cell
     absolute magnetization    =    14.25 Bohr mag/cell
[tb_dev] Currently allocated     9.92E+00 Mbytes, locked:    0 /  11
[tb_pin] Currently allocated     0.00E+00 Mbytes, locked:    0 /   0

     iteration # 36     ecut=    50.00 Ry     beta= 0.20
     Davidson diagonalization with overlap

---- Real-time Memory Report at c_bands before calling an iterative solver
          5448 MiB given to the printing process from OS
           427 MiB allocation reported by mallinfo(arena+hblkhd)
         51484 MiB available memory on the node where the printing process lives
     GPU memory used/free/total (MiB): 3064 / 13216 / 16280
------------------
     ethr =  7.72E-07,  avg # of iterations =  2.0

     negative rho (up, down):  1.246E+00 3.765E-01

     total cpu time spent up to now is      732.5 secs

     total energy              =   -1775.92657709 Ry
     estimated scf accuracy    <       0.01074045 Ry

     total magnetization       =    12.00 Bohr mag/cell
     absolute magnetization    =    14.23 Bohr mag/cell
[tb_dev] Currently allocated     9.92E+00 Mbytes, locked:    0 /  11
[tb_pin] Currently allocated     0.00E+00 Mbytes, locked:    0 /   0

     iteration # 37     ecut=    50.00 Ry     beta= 0.20
     Davidson diagonalization with overlap

---- Real-time Memory Report at c_bands before calling an iterative solver
          5473 MiB given to the printing process from OS
           455 MiB allocation reported by mallinfo(arena+hblkhd)
         51456 MiB available memory on the node where the printing process lives
     GPU memory used/free/total (MiB): 3064 / 13216 / 16280
------------------
     ethr =  7.72E-07,  avg # of iterations =  4.5

     negative rho (up, down):  1.292E+00 3.652E-01

     total cpu time spent up to now is      753.9 secs

     total energy              =   -1775.92470909 Ry
     estimated scf accuracy    <       0.00375326 Ry

     total magnetization       =    12.00 Bohr mag/cell
     absolute magnetization    =    14.21 Bohr mag/cell
[tb_dev] Currently allocated     9.92E+00 Mbytes, locked:    0 /  11
[tb_pin] Currently allocated     0.00E+00 Mbytes, locked:    0 /   0

     iteration # 38     ecut=    50.00 Ry     beta= 0.20
     Davidson diagonalization with overlap

---- Real-time Memory Report at c_bands before calling an iterative solver
          5498 MiB given to the printing process from OS
           478 MiB allocation reported by mallinfo(arena+hblkhd)
         51425 MiB available memory on the node where the printing process lives
     GPU memory used/free/total (MiB): 3064 / 13216 / 16280
------------------
     ethr =  7.72E-07,  avg # of iterations =  5.5

     negative rho (up, down):  1.329E+00 3.567E-01

     total cpu time spent up to now is      779.6 secs

     total energy              =   -1775.92716342 Ry
     estimated scf accuracy    <       0.06882177 Ry

     total magnetization       =    12.00 Bohr mag/cell
     absolute magnetization    =    14.38 Bohr mag/cell
[tb_dev] Currently allocated     9.92E+00 Mbytes, locked:    0 /  11
[tb_pin] Currently allocated     0.00E+00 Mbytes, locked:    0 /   0

     iteration # 39     ecut=    50.00 Ry     beta= 0.20
     Davidson diagonalization with overlap

---- Real-time Memory Report at c_bands before calling an iterative solver
          5521 MiB given to the printing process from OS
           500 MiB allocation reported by mallinfo(arena+hblkhd)
         51409 MiB available memory on the node where the printing process lives
     GPU memory used/free/total (MiB): 3064 / 13216 / 16280
------------------
     ethr =  7.72E-07,  avg # of iterations =  5.7

     negative rho (up, down):  1.321E+00 3.584E-01

     total cpu time spent up to now is      806.2 secs

     total energy              =   -1775.92898444 Ry
     estimated scf accuracy    <       0.39367656 Ry

     total magnetization       =    12.00 Bohr mag/cell
     absolute magnetization    =    14.79 Bohr mag/cell
[tb_dev] Currently allocated     9.92E+00 Mbytes, locked:    0 /  11
[tb_pin] Currently allocated     0.00E+00 Mbytes, locked:    0 /   0

     iteration # 40     ecut=    50.00 Ry     beta= 0.20
     Davidson diagonalization with overlap

---- Real-time Memory Report at c_bands before calling an iterative solver
          5547 MiB given to the printing process from OS
           528 MiB allocation reported by mallinfo(arena+hblkhd)
         51383 MiB available memory on the node where the printing process lives
     GPU memory used/free/total (MiB): 3064 / 13216 / 16280
------------------
     ethr =  7.72E-07,  avg # of iterations =  4.5

     negative rho (up, down):  1.271E+00 3.700E-01

     total cpu time spent up to now is      827.3 secs

     total energy              =   -1775.92200208 Ry
     estimated scf accuracy    <       0.33233880 Ry

     total magnetization       =    12.00 Bohr mag/cell
     absolute magnetization    =    14.76 Bohr mag/cell
[tb_dev] Currently allocated     9.92E+00 Mbytes, locked:    0 /  11
[tb_pin] Currently allocated     0.00E+00 Mbytes, locked:    0 /   0

     iteration # 41     ecut=    50.00 Ry     beta= 0.20
     Davidson diagonalization with overlap

---- Real-time Memory Report at c_bands before calling an iterative solver
          5572 MiB given to the printing process from OS
           551 MiB allocation reported by mallinfo(arena+hblkhd)
         51359 MiB available memory on the node where the printing process lives
     GPU memory used/free/total (MiB): 3064 / 13216 / 16280
------------------
     ethr =  7.72E-07,  avg # of iterations =  6.6

     negative rho (up, down):  1.237E+00 3.789E-01

     total cpu time spent up to now is      855.4 secs

     total energy              =   -1775.92664022 Ry
     estimated scf accuracy    <       0.01869251 Ry

     total magnetization       =    12.00 Bohr mag/cell
     absolute magnetization    =    14.30 Bohr mag/cell
[tb_dev] Currently allocated     9.92E+00 Mbytes, locked:    0 /  11
[tb_pin] Currently allocated     0.00E+00 Mbytes, locked:    0 /   0

     iteration # 42     ecut=    50.00 Ry     beta= 0.20
     Davidson diagonalization with overlap

---- Real-time Memory Report at c_bands before calling an iterative solver
          5596 MiB given to the printing process from OS
           578 MiB allocation reported by mallinfo(arena+hblkhd)
         51333 MiB available memory on the node where the printing process lives
     GPU memory used/free/total (MiB): 3064 / 13216 / 16280
------------------
     ethr =  7.72E-07,  avg # of iterations =  4.5

     negative rho (up, down):  1.241E+00 3.775E-01

     total cpu time spent up to now is      877.2 secs

     total energy              =   -1775.92688389 Ry
     estimated scf accuracy    <       0.00962103 Ry

     total magnetization       =    12.00 Bohr mag/cell
     absolute magnetization    =    14.24 Bohr mag/cell
[tb_dev] Currently allocated     9.92E+00 Mbytes, locked:    0 /  11
[tb_pin] Currently allocated     0.00E+00 Mbytes, locked:    0 /   0

     iteration # 43     ecut=    50.00 Ry     beta= 0.20
     Davidson diagonalization with overlap

---- Real-time Memory Report at c_bands before calling an iterative solver
          5622 MiB given to the printing process from OS
           601 MiB allocation reported by mallinfo(arena+hblkhd)
         51310 MiB available memory on the node where the printing process lives
     GPU memory used/free/total (MiB): 3064 / 13216 / 16280
------------------
     ethr =  7.72E-07,  avg # of iterations =  2.0

     negative rho (up, down):  1.247E+00 3.760E-01

     total cpu time spent up to now is      895.3 secs

     total energy              =   -1775.92656563 Ry
     estimated scf accuracy    <       0.00999481 Ry

     total magnetization       =    12.00 Bohr mag/cell
     absolute magnetization    =    14.25 Bohr mag/cell
[tb_dev] Currently allocated     9.92E+00 Mbytes, locked:    0 /  11
[tb_pin] Currently allocated     0.00E+00 Mbytes, locked:    0 /   0

     iteration # 44     ecut=    50.00 Ry     beta= 0.20
     Davidson diagonalization with overlap

---- Real-time Memory Report at c_bands before calling an iterative solver
          5647 MiB given to the printing process from OS
           628 MiB allocation reported by mallinfo(arena+hblkhd)
         51282 MiB available memory on the node where the printing process lives
     GPU memory used/free/total (MiB): 3064 / 13216 / 16280
------------------
     ethr =  7.72E-07,  avg # of iterations =  2.0

     negative rho (up, down):  1.254E+00 3.749E-01

     total cpu time spent up to now is      913.1 secs

     total energy              =   -1775.92645689 Ry
     estimated scf accuracy    <       0.00808562 Ry

     total magnetization       =    12.00 Bohr mag/cell
     absolute magnetization    =    14.23 Bohr mag/cell
[tb_dev] Currently allocated     9.92E+00 Mbytes, locked:    0 /  11
[tb_pin] Currently allocated     0.00E+00 Mbytes, locked:    0 /   0

     iteration # 45     ecut=    50.00 Ry     beta= 0.20
     Davidson diagonalization with overlap

---- Real-time Memory Report at c_bands before calling an iterative solver
          5672 MiB given to the printing process from OS
           651 MiB allocation reported by mallinfo(arena+hblkhd)
         51260 MiB available memory on the node where the printing process lives
     GPU memory used/free/total (MiB): 3064 / 13216 / 16280
------------------
     ethr =  7.72E-07,  avg # of iterations =  4.2

     negative rho (up, down):  1.221E+00 3.833E-01

     total cpu time spent up to now is      934.1 secs

     total energy              =   -1775.92727360 Ry
     estimated scf accuracy    <       0.02161580 Ry

     total magnetization       =    12.00 Bohr mag/cell
     absolute magnetization    =    14.30 Bohr mag/cell
[tb_dev] Currently allocated     9.92E+00 Mbytes, locked:    0 /  11
[tb_pin] Currently allocated     0.00E+00 Mbytes, locked:    0 /   0

     iteration # 46     ecut=    50.00 Ry     beta= 0.20
     Davidson diagonalization with overlap

---- Real-time Memory Report at c_bands before calling an iterative solver
          5697 MiB given to the printing process from OS
           678 MiB allocation reported by mallinfo(arena+hblkhd)
         51232 MiB available memory on the node where the printing process lives
     GPU memory used/free/total (MiB): 3064 / 13216 / 16280
------------------
     ethr =  7.72E-07,  avg # of iterations =  4.0

     negative rho (up, down):  1.187E+00 3.937E-01

     total cpu time spent up to now is      955.1 secs

     total energy              =   -1775.92936123 Ry
     estimated scf accuracy    <       0.01550618 Ry

     total magnetization       =    12.00 Bohr mag/cell
     absolute magnetization    =    14.16 Bohr mag/cell
[tb_dev] Currently allocated     9.92E+00 Mbytes, locked:    0 /  11
[tb_pin] Currently allocated     0.00E+00 Mbytes, locked:    0 /   0

     iteration # 47     ecut=    50.00 Ry     beta= 0.20
     Davidson diagonalization with overlap

---- Real-time Memory Report at c_bands before calling an iterative solver
          5722 MiB given to the printing process from OS
           701 MiB allocation reported by mallinfo(arena+hblkhd)
         51210 MiB available memory on the node where the printing process lives
     GPU memory used/free/total (MiB): 3064 / 13216 / 16280
------------------
     ethr =  7.72E-07,  avg # of iterations =  5.0

     negative rho (up, down):  1.255E+00 3.742E-01

     total cpu time spent up to now is      978.9 secs

     total energy              =   -1775.92538027 Ry
     estimated scf accuracy    <       0.14033356 Ry

     total magnetization       =    12.00 Bohr mag/cell
     absolute magnetization    =    13.88 Bohr mag/cell
[tb_dev] Currently allocated     9.92E+00 Mbytes, locked:    0 /  11
[tb_pin] Currently allocated     0.00E+00 Mbytes, locked:    0 /   0

     iteration # 48     ecut=    50.00 Ry     beta= 0.20
     Davidson diagonalization with overlap

---- Real-time Memory Report at c_bands before calling an iterative solver
          5746 MiB given to the printing process from OS
           728 MiB allocation reported by mallinfo(arena+hblkhd)
         51162 MiB available memory on the node where the printing process lives
     GPU memory used/free/total (MiB): 3064 / 13216 / 16280
------------------
     ethr =  7.72E-07,  avg # of iterations =  4.5

     negative rho (up, down):  1.242E+00 3.775E-01

     total cpu time spent up to now is     1002.5 secs

     total energy              =   -1775.92677621 Ry
     estimated scf accuracy    <       0.01262993 Ry

     total magnetization       =    12.00 Bohr mag/cell
     absolute magnetization    =    14.24 Bohr mag/cell
[tb_dev] Currently allocated     9.92E+00 Mbytes, locked:    0 /  11
[tb_pin] Currently allocated     0.00E+00 Mbytes, locked:    0 /   0

     iteration # 49     ecut=    50.00 Ry     beta= 0.20
     Davidson diagonalization with overlap

---- Real-time Memory Report at c_bands before calling an iterative solver
          5772 MiB given to the printing process from OS
           750 MiB allocation reported by mallinfo(arena+hblkhd)
         51150 MiB available memory on the node where the printing process lives
     GPU memory used/free/total (MiB): 3064 / 13216 / 16280
------------------
     ethr =  7.72E-07,  avg # of iterations =  4.5

     negative rho (up, down):  1.235E+00 3.792E-01

     total cpu time spent up to now is     1023.9 secs

     total energy              =   -1775.92718447 Ry
     estimated scf accuracy    <       0.00415932 Ry

     total magnetization       =    12.00 Bohr mag/cell
     absolute magnetization    =    14.21 Bohr mag/cell
[tb_dev] Currently allocated     9.92E+00 Mbytes, locked:    0 /  11
[tb_pin] Currently allocated     0.00E+00 Mbytes, locked:    0 /   0

     iteration # 50     ecut=    50.00 Ry     beta= 0.20
     Davidson diagonalization with overlap

---- Real-time Memory Report at c_bands before calling an iterative solver
          5794 MiB given to the printing process from OS
           773 MiB allocation reported by mallinfo(arena+hblkhd)
         51128 MiB available memory on the node where the printing process lives
     GPU memory used/free/total (MiB): 3064 / 13216 / 16280
------------------
     ethr =  7.72E-07,  avg # of iterations =  3.0

     negative rho (up, down):  1.257E+00 3.730E-01

     total cpu time spent up to now is     1042.9 secs

     total energy              =   -1775.92636357 Ry
     estimated scf accuracy    <       0.00364903 Ry

     total magnetization       =    12.00 Bohr mag/cell
     absolute magnetization    =    14.17 Bohr mag/cell
[tb_dev] Currently allocated     9.92E+00 Mbytes, locked:    0 /  11
[tb_pin] Currently allocated     0.00E+00 Mbytes, locked:    0 /   0

     iteration # 51     ecut=    50.00 Ry     beta= 0.20
     Davidson diagonalization with overlap

---- Real-time Memory Report at c_bands before calling an iterative solver
          5819 MiB given to the printing process from OS
           801 MiB allocation reported by mallinfo(arena+hblkhd)
         51099 MiB available memory on the node where the printing process lives
     GPU memory used/free/total (MiB): 3064 / 13216 / 16280
------------------
     ethr =  7.72E-07,  avg # of iterations =  4.5

     negative rho (up, down):  1.239E+00 3.781E-01

     total cpu time spent up to now is     1064.6 secs

     total energy              =   -1775.92686118 Ry
     estimated scf accuracy    <       0.01406133 Ry

     total magnetization       =    12.00 Bohr mag/cell
     absolute magnetization    =    14.23 Bohr mag/cell
[tb_dev] Currently allocated     9.92E+00 Mbytes, locked:    0 /  11
[tb_pin] Currently allocated     0.00E+00 Mbytes, locked:    0 /   0

     iteration # 52     ecut=    50.00 Ry     beta= 0.20
     Davidson diagonalization with overlap

---- Real-time Memory Report at c_bands before calling an iterative solver
          5844 MiB given to the printing process from OS
           824 MiB allocation reported by mallinfo(arena+hblkhd)
         51077 MiB available memory on the node where the printing process lives
     GPU memory used/free/total (MiB): 3064 / 13216 / 16280
------------------
     ethr =  7.72E-07,  avg # of iterations =  5.0

     negative rho (up, down):  1.227E+00 3.813E-01

     total cpu time spent up to now is     1086.7 secs

     total energy              =   -1775.92736899 Ry
     estimated scf accuracy    <       0.00262713 Ry

     total magnetization       =    12.00 Bohr mag/cell
     absolute magnetization    =    14.19 Bohr mag/cell
[tb_dev] Currently allocated     9.92E+00 Mbytes, locked:    0 /  11
[tb_pin] Currently allocated     0.00E+00 Mbytes, locked:    0 /   0

     iteration # 53     ecut=    50.00 Ry     beta= 0.20
     Davidson diagonalization with overlap

---- Real-time Memory Report at c_bands before calling an iterative solver
          5870 MiB given to the printing process from OS
           852 MiB allocation reported by mallinfo(arena+hblkhd)
         51051 MiB available memory on the node where the printing process lives
     GPU memory used/free/total (MiB): 3064 / 13216 / 16280
------------------
     ethr =  7.72E-07,  avg # of iterations =  4.5

     negative rho (up, down):  1.256E+00 3.738E-01

     total cpu time spent up to now is     1107.8 secs

     total energy              =   -1775.92647032 Ry
     estimated scf accuracy    <       0.01407817 Ry

     total magnetization       =    12.00 Bohr mag/cell
     absolute magnetization    =    14.23 Bohr mag/cell
[tb_dev] Currently allocated     9.92E+00 Mbytes, locked:    0 /  11
[tb_pin] Currently allocated     0.00E+00 Mbytes, locked:    0 /   0

     iteration # 54     ecut=    50.00 Ry     beta= 0.20
     Davidson diagonalization with overlap

---- Real-time Memory Report at c_bands before calling an iterative solver
[...]
     GPU memory used/free/total (MiB): 3064 / 13216 / 16280
------------------
     ethr =  7.72E-07,  avg # of iterations =  1.5

     negative rho (up, down):  1.231E+00 3.813E-01

     total cpu time spent up to now is     1330.8 secs

     total energy              =   -1775.92764204 Ry
     estimated scf accuracy    <       0.01154575 Ry

     total magnetization       =    12.00 Bohr mag/cell
     absolute magnetization    =    14.26 Bohr mag/cell
[tb_dev] Currently allocated     9.92E+00 Mbytes, locked:    0 /  11
[tb_pin] Currently allocated     0.00E+00 Mbytes, locked:    0 /   0

     iteration # 66     ecut=    50.00 Ry     beta= 0.20
     Davidson diagonalization with overlap

---- Real-time Memory Report at c_bands before calling an iterative solver
          6191 MiB given to the printing process from OS
          1171 MiB allocation reported by mallinfo(arena+hblkhd)
         50738 MiB available memory on the node where the printing process lives
     GPU memory used/free/total (MiB): 3064 / 13216 / 16280
------------------
     ethr =  7.72E-07,  avg # of iterations =  1.0

     negative rho (up, down):  1.235E+00 3.804E-01

     total cpu time spent up to now is     1347.1 secs

     total energy              =   -1775.92750534 Ry
     estimated scf accuracy    <       0.01021006 Ry

     total magnetization       =    12.00 Bohr mag/cell
     absolute magnetization    =    14.26 Bohr mag/cell
[tb_dev] Currently allocated     9.92E+00 Mbytes, locked:    0 /  11
[tb_pin] Currently allocated     0.00E+00 Mbytes, locked:    0 /   0

     iteration # 67     ecut=    50.00 Ry     beta= 0.20
     Davidson diagonalization with overlap

---- Real-time Memory Report at c_bands before calling an iterative solver
          6214 MiB given to the printing process from OS
          1194 MiB allocation reported by mallinfo(arena+hblkhd)
         50712 MiB available memory on the node where the printing process lives
     GPU memory used/free/total (MiB): 3064 / 13216 / 16280
------------------
     ethr =  7.72E-07,  avg # of iterations =  1.0

     negative rho (up, down):  1.239E+00 3.793E-01

     total cpu time spent up to now is     1363.4 secs

     total energy              =   -1775.92733273 Ry
     estimated scf accuracy    <       0.00876191 Ry

     total magnetization       =    12.00 Bohr mag/cell
     absolute magnetization    =    14.26 Bohr mag/cell
[tb_dev] Currently allocated     9.92E+00 Mbytes, locked:    0 /  11
[tb_pin] Currently allocated     0.00E+00 Mbytes, locked:    0 /   0

     iteration # 68     ecut=    50.00 Ry     beta= 0.20
     Davidson diagonalization with overlap

---- Real-time Memory Report at c_bands before calling an iterative solver
          6240 MiB given to the printing process from OS
          1222 MiB allocation reported by mallinfo(arena+hblkhd)
         50685 MiB available memory on the node where the printing process lives
     GPU memory used/free/total (MiB): 3064 / 13216 / 16280
------------------
     ethr =  7.72E-07,  avg # of iterations =  2.0

     negative rho (up, down):  1.244E+00 3.781E-01

     total cpu time spent up to now is     1381.2 secs

     total energy              =   -1775.92716871 Ry
     estimated scf accuracy    <       0.00640678 Ry

     total magnetization       =    12.00 Bohr mag/cell
     absolute magnetization    =    14.27 Bohr mag/cell
[tb_dev] Currently allocated     9.92E+00 Mbytes, locked:    0 /  11
[tb_pin] Currently allocated     0.00E+00 Mbytes, locked:    0 /   0

     iteration # 69     ecut=    50.00 Ry     beta= 0.20
     Davidson diagonalization with overlap

---- Real-time Memory Report at c_bands before calling an iterative solver
          6265 MiB given to the printing process from OS
          1245 MiB allocation reported by mallinfo(arena+hblkhd)
         50663 MiB available memory on the node where the printing process lives
     GPU memory used/free/total (MiB): 3064 / 13216 / 16280
------------------
     ethr =  7.72E-07,  avg # of iterations =  2.0

     negative rho (up, down):  1.244E+00 3.781E-01

     total cpu time spent up to now is     1399.1 secs

     total energy              =   -1775.92716008 Ry
     estimated scf accuracy    <       0.00576268 Ry

     total magnetization       =    12.00 Bohr mag/cell
     absolute magnetization    =    14.26 Bohr mag/cell
[tb_dev] Currently allocated     9.92E+00 Mbytes, locked:    0 /  11
[tb_pin] Currently allocated     0.00E+00 Mbytes, locked:    0 /   0

     iteration # 70     ecut=    50.00 Ry     beta= 0.20
     Davidson diagonalization with overlap

---- Real-time Memory Report at c_bands before calling an iterative solver
          6293 MiB given to the printing process from OS
          1272 MiB allocation reported by mallinfo(arena+hblkhd)
         50635 MiB available memory on the node where the printing process lives
     GPU memory used/free/total (MiB): 3064 / 13216 / 16280
------------------
     ethr =  7.72E-07,  avg # of iterations =  1.0

     negative rho (up, down):  1.273E+00 3.720E-01

     total cpu time spent up to now is     1415.5 secs

     total energy              =   -1775.92616154 Ry
     estimated scf accuracy    <       0.00606551 Ry

     total magnetization       =    12.00 Bohr mag/cell
     absolute magnetization    =    14.27 Bohr mag/cell
[tb_dev] Currently allocated     9.92E+00 Mbytes, locked:    0 /  11
[tb_pin] Currently allocated     0.00E+00 Mbytes, locked:    0 /   0

     iteration # 71     ecut=    50.00 Ry     beta= 0.20
     Davidson diagonalization with overlap

---- Real-time Memory Report at c_bands before calling an iterative solver
          6315 MiB given to the printing process from OS
          1295 MiB allocation reported by mallinfo(arena+hblkhd)
         50614 MiB available memory on the node where the printing process lives
     GPU memory used/free/total (MiB): 3064 / 13216 / 16280
------------------
     ethr =  7.72E-07,  avg # of iterations =  5.0

     negative rho (up, down):  1.264E+00 3.739E-01

     total cpu time spent up to now is     1438.3 secs

     total energy              =   -1775.92700513 Ry
     estimated scf accuracy    <       0.04223766 Ry

     total magnetization       =    12.00 Bohr mag/cell
     absolute magnetization    =    14.48 Bohr mag/cell
[tb_dev] Currently allocated     9.92E+00 Mbytes, locked:    0 /  11
[tb_pin] Currently allocated     0.00E+00 Mbytes, locked:    0 /   0

     iteration # 72     ecut=    50.00 Ry     beta= 0.20
     Davidson diagonalization with overlap

---- Real-time Memory Report at c_bands before calling an iterative solver
          6338 MiB given to the printing process from OS
          1318 MiB allocation reported by mallinfo(arena+hblkhd)
         50590 MiB available memory on the node where the printing process lives
     GPU memory used/free/total (MiB): 3064 / 13216 / 16280
------------------
     ethr =  7.72E-07,  avg # of iterations =  3.5

     negative rho (up, down):  1.265E+00 3.737E-01

     total cpu time spent up to now is     1458.2 secs

     total energy              =   -1775.92697463 Ry
     estimated scf accuracy    <       0.02958748 Ry

     total magnetization       =    12.00 Bohr mag/cell
     absolute magnetization    =    14.41 Bohr mag/cell
[tb_dev] Currently allocated     9.92E+00 Mbytes, locked:    0 /  11
[tb_pin] Currently allocated     0.00E+00 Mbytes, locked:    0 /   0

     iteration # 73     ecut=    50.00 Ry     beta= 0.20
     Davidson diagonalization with overlap

---- Real-time Memory Report at c_bands before calling an iterative solver
          6363 MiB given to the printing process from OS
          1346 MiB allocation reported by mallinfo(arena+hblkhd)
         50544 MiB available memory on the node where the printing process lives
     GPU memory used/free/total (MiB): 3064 / 13216 / 16280
------------------
     ethr =  7.72E-07,  avg # of iterations =  1.0

     negative rho (up, down):  1.261E+00 3.745E-01

     total cpu time spent up to now is     1474.6 secs

     total energy              =   -1775.92722780 Ry
     estimated scf accuracy    <       0.02999000 Ry

     total magnetization       =    12.00 Bohr mag/cell
     absolute magnetization    =    14.42 Bohr mag/cell
[tb_dev] Currently allocated     9.92E+00 Mbytes, locked:    0 /  11
[tb_pin] Currently allocated     0.00E+00 Mbytes, locked:    0 /   0

     iteration # 74     ecut=    50.00 Ry     beta= 0.20
     Davidson diagonalization with overlap

---- Real-time Memory Report at c_bands before calling an iterative solver
          6389 MiB given to the printing process from OS
          1369 MiB allocation reported by mallinfo(arena+hblkhd)
         50528 MiB available memory on the node where the printing process lives
     GPU memory used/free/total (MiB): 3064 / 13216 / 16280
------------------
     ethr =  7.72E-07,  avg # of iterations =  1.0

     negative rho (up, down):  1.240E+00 3.790E-01

     total cpu time spent up to now is     1490.9 secs

     total energy              =   -1775.92694289 Ry
     estimated scf accuracy    <       0.03137629 Ry

     total magnetization       =    12.00 Bohr mag/cell
     absolute magnetization    =    14.41 Bohr mag/cell
[tb_dev] Currently allocated     9.92E+00 Mbytes, locked:    0 /  11
[tb_pin] Currently allocated     0.00E+00 Mbytes, locked:    0 /   0

     iteration # 75     ecut=    50.00 Ry     beta= 0.20
     Davidson diagonalization with overlap

---- Real-time Memory Report at c_bands before calling an iterative solver
          6414 MiB given to the printing process from OS
          1396 MiB allocation reported by mallinfo(arena+hblkhd)
         50500 MiB available memory on the node where the printing process lives
     GPU memory used/free/total (MiB): 3064 / 13216 / 16280
------------------
     ethr =  7.72E-07,  avg # of iterations =  4.4

     negative rho (up, down):  1.236E+00 3.801E-01

     total cpu time spent up to now is     1512.6 secs

     total energy              =   -1775.92739929 Ry
     estimated scf accuracy    <       0.00929070 Ry

     total magnetization       =    12.00 Bohr mag/cell
     absolute magnetization    =    14.29 Bohr mag/cell
[tb_dev] Currently allocated     9.92E+00 Mbytes, locked:    0 /  11
[tb_pin] Currently allocated     0.00E+00 Mbytes, locked:    0 /   0

     iteration # 76     ecut=    50.00 Ry     beta= 0.20
     Davidson diagonalization with overlap

---- Real-time Memory Report at c_bands before calling an iterative solver
          6439 MiB given to the printing process from OS
          1419 MiB allocation reported by mallinfo(arena+hblkhd)
         50481 MiB available memory on the node where the printing process lives
     GPU memory used/free/total (MiB): 3064 / 13216 / 16280
------------------
     ethr =  7.72E-07,  avg # of iterations =  2.0

     negative rho (up, down):  1.231E+00 3.811E-01

     total cpu time spent up to now is     1530.5 secs

     total energy              =   -1775.92756378 Ry
     estimated scf accuracy    <       0.00978064 Ry

     total magnetization       =    12.00 Bohr mag/cell
     absolute magnetization    =    14.27 Bohr mag/cell
[tb_dev] Currently allocated     9.92E+00 Mbytes, locked:    0 /  11
[tb_pin] Currently allocated     0.00E+00 Mbytes, locked:    0 /   0

     iteration # 77     ecut=    50.00 Ry     beta= 0.20
     Davidson diagonalization with overlap

---- Real-time Memory Report at c_bands before calling an iterative solver
          6462 MiB given to the printing process from OS
          1442 MiB allocation reported by mallinfo(arena+hblkhd)
         50459 MiB available memory on the node where the printing process lives
     GPU memory used/free/total (MiB): 3064 / 13216 / 16280
------------------
     ethr =  7.72E-07,  avg # of iterations =  2.0

     negative rho (up, down):  1.240E+00 3.791E-01

     total cpu time spent up to now is     1548.4 secs

     total energy              =   -1775.92722827 Ry
     estimated scf accuracy    <       0.01055257 Ry

     total magnetization       =    12.00 Bohr mag/cell
     absolute magnetization    =    14.25 Bohr mag/cell
[tb_dev] Currently allocated     9.92E+00 Mbytes, locked:    0 /  11
[tb_pin] Currently allocated     0.00E+00 Mbytes, locked:    0 /   0

     iteration # 78     ecut=    50.00 Ry     beta= 0.20
     Davidson diagonalization with overlap

---- Real-time Memory Report at c_bands before calling an iterative solver
          6490 MiB given to the printing process from OS
          1470 MiB allocation reported by mallinfo(arena+hblkhd)
         50433 MiB available memory on the node where the printing process lives
     GPU memory used/free/total (MiB): 3064 / 13216 / 16280
------------------
     ethr =  7.72E-07,  avg # of iterations =  2.0

     negative rho (up, down):  1.244E+00 3.784E-01

     total cpu time spent up to now is     1566.2 secs

     total energy              =   -1775.92712158 Ry
     estimated scf accuracy    <       0.00864605 Ry

     total magnetization       =    12.00 Bohr mag/cell
     absolute magnetization    =    14.28 Bohr mag/cell
[tb_dev] Currently allocated     9.92E+00 Mbytes, locked:    0 /  11
[tb_pin] Currently allocated     0.00E+00 Mbytes, locked:    0 /   0

     iteration # 79     ecut=    50.00 Ry     beta= 0.20
     Davidson diagonalization with overlap

---- Real-time Memory Report at c_bands before calling an iterative solver
          6513 MiB given to the printing process from OS
          1492 MiB allocation reported by mallinfo(arena+hblkhd)
         50409 MiB available memory on the node where the printing process lives
     GPU memory used/free/total (MiB): 3064 / 13216 / 16280
------------------
     ethr =  7.72E-07,  avg # of iterations =  2.0

     negative rho (up, down):  1.246E+00 3.781E-01

     total cpu time spent up to now is     1584.1 secs

     total energy              =   -1775.92699176 Ry
     estimated scf accuracy    <       0.00682479 Ry

     total magnetization       =    12.00 Bohr mag/cell
     absolute magnetization    =    14.28 Bohr mag/cell
[tb_dev] Currently allocated     9.92E+00 Mbytes, locked:    0 /  11
[tb_pin] Currently allocated     0.00E+00 Mbytes, locked:    0 /   0

     iteration # 80     ecut=    50.00 Ry     beta= 0.20
     Davidson diagonalization with overlap

---- Real-time Memory Report at c_bands before calling an iterative solver
          6538 MiB given to the printing process from OS
          1520 MiB allocation reported by mallinfo(arena+hblkhd)
         50382 MiB available memory on the node where the printing process lives
     GPU memory used/free/total (MiB): 3064 / 13216 / 16280
------------------
     ethr =  7.72E-07,  avg # of iterations =  1.0

     negative rho (up, down):  1.248E+00 3.777E-01

     total cpu time spent up to now is     1600.5 secs

     total energy              =   -1775.92693129 Ry
     estimated scf accuracy    <       0.00674815 Ry

     total magnetization       =    12.00 Bohr mag/cell
     absolute magnetization    =    14.28 Bohr mag/cell

     End of self-consistent calculation

     convergence NOT achieved after  80 iterations: stopping

     Writing config to output data dir ./out/aiida.save/
 
     init_run     :     38.02s CPU      7.99s WALL (       1 calls)
     electrons    :   2883.51s CPU   1591.81s WALL (       1 calls)

     Called by init_run:
     wfcinit      :      1.48s CPU      1.48s WALL (       1 calls)
                                        1.48s GPU  (       1 calls)
     potinit      :     20.61s CPU      2.03s WALL (       1 calls)
     hinit0       :      9.49s CPU      3.55s WALL (       1 calls)

     Called by electrons:
     c_bands      :   1230.36s CPU   1234.10s WALL (      80 calls)
     sum_band     :    210.52s CPU    224.57s WALL (      80 calls)
     v_of_rho     :     40.51s CPU      3.69s WALL (      81 calls)
     v_h          :      5.97s CPU      0.53s WALL (      81 calls)
     v_xc         :     34.53s CPU      3.16s WALL (      81 calls)
     newd         :     56.28s CPU      5.48s WALL (      81 calls)
                                        5.47s GPU  (      81 calls)
     PAW_pot      :   1300.88s CPU    119.17s WALL (      81 calls)
     mix_rho      :     49.16s CPU      5.38s WALL (      80 calls)

     Called by c_bands:
     init_us_2    :     57.67s CPU     69.36s WALL (   35840 calls)
     init_us_2:gp :     57.03s CPU     68.75s WALL (   35840 calls)
     cegterg      :   1047.05s CPU   1037.37s WALL (   17920 calls)

     Called by sum_band:
     sum_band:wei :      1.22s CPU      1.23s WALL (      80 calls)
                                        1.22s GPU  (      80 calls)
     sum_band:loo :    201.82s CPU    215.78s WALL (      80 calls)
                                      215.78s GPU  (      80 calls)
     sum_band:buf :     62.54s CPU     64.73s WALL (   17920 calls)
                                       64.62s GPU  (   17920 calls)
     sum_band:ini :     26.51s CPU     30.78s WALL (   17920 calls)
                                       30.68s GPU  (   17920 calls)
     sum_band:cal :      0.53s CPU      7.64s WALL (   17920 calls)
                                        6.69s GPU  (   17920 calls)
     sum_band:bec :      4.75s CPU      5.16s WALL (   17920 calls)
                                        5.05s GPU  (   17920 calls)
     addusdens    :      4.05s CPU      4.12s WALL (      80 calls)
                                        4.12s GPU  (      80 calls)
     addusd:skk   :      0.04s CPU      0.05s WALL (     160 calls)
                                        0.05s GPU  (     160 calls)

     Called by *egterg:
     cdiaghg      :    339.79s CPU    366.81s WALL (   72862 calls)
                                      366.33s GPU  (   72862 calls)
     cegterg:over :     23.87s CPU     23.45s WALL (   55166 calls)
     cegterg:upda :     30.61s CPU     29.65s WALL (   55166 calls)
     cegterg:last :     21.08s CPU     20.36s WALL (   31799 calls)
     h_psi        :    561.59s CPU    531.48s WALL (   73086 calls)
                                      530.29s GPU  (   73086 calls)
     s_psi        :     13.06s CPU     31.20s WALL (   73086 calls)
                                       28.95s GPU  (   73086 calls)
     g_psi        :      0.42s CPU      2.70s WALL (   55166 calls)
                                        2.35s GPU  (   55166 calls)

     Called by h_psi:
     h_psi:calbec :      2.71s CPU     20.06s WALL (   73086 calls)
                                       19.60s GPU  (   73086 calls)
     vloc_psi     :    491.08s CPU    464.46s WALL (   73086 calls)
                                      464.00s GPU  (   73086 calls)
     add_vuspsi   :     23.93s CPU     39.86s WALL (   73086 calls)
                                       39.40s GPU  (   73086 calls)

     General routines
     calbec       :      2.38s CPU      2.34s WALL (   91006 calls)
     fft          :      2.69s CPU      0.59s WALL (    2023 calls)
                                        0.48s GPU  (    1861 calls)
     ffts         :      0.23s CPU      0.05s WALL (     322 calls)
                                        0.01s GPU  (     160 calls)
     fftw         :     13.45s CPU    405.20s WALL (  528398 calls)
                                      402.14s GPU  (  528398 calls)
     interpolate  :      5.41s CPU      0.48s WALL (     162 calls)
     davcio       :      0.57s CPU      3.60s WALL (     466 calls)
 
     Parallel routines

     PAW routines
     PAW_pot      :   1300.88s CPU    119.17s WALL (      81 calls)
     PAW_symme    :      0.12s CPU      0.02s WALL (     160 calls)
 
     PWSCF        :  48m44.97s CPU  26m43.18s WALL

 
   This run was terminated on:  22:45:23  23Oct2023            

=------------------------------------------------------------------------------=
   JOB DONE.
=------------------------------------------------------------------------------=
