
     Program PWSCF v.7.2 starts on 30Nov2023 at  4:25:41 
        Git branch: develop
        Last git commit: 9055681be6fc8200e6fffe76ed5fda34c2696339
        Last git commit date: Wed Nov 8 16:29:39 2023 +0000
        Last git commit subject: Merge branch 'calbec_fix' into 'develop'

     This program is part of the open-source Quantum ESPRESSO suite
     for quantum simulation of materials; please cite
         "P. Giannozzi et al., J. Phys.:Condens. Matter 21 395502 (2009);
         "P. Giannozzi et al., J. Phys.:Condens. Matter 29 465901 (2017);
         "P. Giannozzi et al., J. Chem. Phys. 152 154105 (2020);
          URL http://www.quantum-espresso.org", 
     in publications or presentations arising from this work. More details at
     http://www.quantum-espresso.org/quote

     Parallel version (MPI), running on    56 processors

     MPI processes distributed on     1 nodes
     487198 MiB available memory on the printing compute node when the environment starts

     Reading input from aiida.in

     Current dimensions of program PWSCF are:
     Max number of different atomic species (ntypx) = 10
     Max number of k-points (npk) =  40000
     Max angular momentum in pseudopotentials (lmaxx) =  4
     Message from routine setup:
     using ibrav=0 with symmetry is DISCOURAGED, use correct ibrav instead

     K-points division:     npool     =       7
     R & G space division:  proc/nbgrp/npool/nimage =       8
     Subspace diagonalization in iterative solution of the eigenvalue problem:
     a serial algorithm will be used


     Parallelization info
     --------------------
     sticks:   dense  smooth     PW     G-vecs:    dense   smooth      PW
     Min         959     481    130                55444    19639    2801
     Max         960     482    131                55447    19641    2803
     Sum        7675    3853   1045               443559   157117   22419

     Using Slab Decomposition



     bravais-lattice index     =            0
     lattice parameter (alat)  =      15.2331  a.u.
     unit-cell volume          =    2499.4886 (a.u.)^3
     number of atoms/cell      =           10
     number of atomic types    =            3
     number of electrons       =        68.00
     number of Kohn-Sham states=           45
     kinetic-energy cutoff     =      60.0000  Ry
     charge density cutoff     =     480.0000  Ry
     scf convergence threshold =      2.0E-09
     mixing beta               =       0.4000
     number of iterations used =            8  plain     mixing
     Exchange-correlation= PBESOL
                           (   1   4  10   8   0   0   0)

     celldm(1)=  15.233115  celldm(2)=   0.000000  celldm(3)=   0.000000
     celldm(4)=   0.000000  celldm(5)=   0.000000  celldm(6)=   0.000000

     crystal axes: (cart. coord. in units of alat)
               a(1) = (   0.000000   0.707107   0.707107 )  
               a(2) = (   0.707107   0.000000   0.707107 )  
               a(3) = (   0.707107   0.707107   0.000000 )  

     reciprocal axes: (cart. coord. in units 2 pi/alat)
               b(1) = ( -0.707107  0.707107  0.707107 )  
               b(2) = (  0.707107 -0.707107  0.707107 )  
               b(3) = (  0.707107  0.707107 -0.707107 )  


     PseudoPot. # 1 for Cl read from file:
     ./pseudo/cl_pbesol_v1.4.uspp.F.UPF
     MD5 check sum: ed6bbcf06f19043c0df9f6394706ff8f
     Pseudo is Ultrasoft + core correction, Zval =  7.0
     Generated by new atomic code, or converted to UPF format
     Using radial grid of  909 points,  6 beta functions with: 
                l(1) =   0
                l(2) =   0
                l(3) =   1
                l(4) =   1
                l(5) =   2
                l(6) =   2
     Q(r) pseudized with  8 coefficients,  rinner =    1.300   1.300   1.300
                                                       1.300   1.300

     PseudoPot. # 2 for Co read from file:
     ./pseudo/co_pbesol_v1.2.uspp.F.UPF
     MD5 check sum: 3b4cd4e7cc7df4da9fdede0fd33e2193
     Pseudo is Ultrasoft + core correction, Zval = 17.0
     Generated by new atomic code, or converted to UPF format
     Using radial grid of  863 points,  6 beta functions with: 
                l(1) =   0
                l(2) =   0
                l(3) =   1
                l(4) =   1
                l(5) =   2
                l(6) =   2
     Q(r) pseudized with  8 coefficients,  rinner =    1.200   1.200   1.200
                                                       1.200   1.200

     PseudoPot. # 3 for N  read from file:
     ./pseudo/N.pbesol-theos.UPF
     MD5 check sum: 1b64827339d390a5a22afef3ff345c9d
     Pseudo is Ultrasoft + core correction, Zval =  5.0
     Generated using "atomic" code by A. Dal Corso  v.5.1
     Using radial grid of 1085 points,  4 beta functions with: 
                l(1) =   0
                l(2) =   0
                l(3) =   1
                l(4) =   1
     Q(r) pseudized with 0 coefficients 


     atomic species   valence    mass     pseudopotential
     Cl                7.00    35.45300     Cl( 1.00)
     Co               17.00    58.93319     Co( 1.00)
     N                 5.00    14.00670     N ( 1.00)

     Starting magnetic structure 
     atomic species   magnetization
     Cl              0.100
     Co              0.294
     N               0.100

     48 Sym. Ops., with inversion, found


                                    s                        frac. trans.

      isym =  1     identity                                     

 cryst.   s( 1) = (     1          0          0      )
                  (     0          1          0      )
                  (     0          0          1      )

 cart.    s( 1) = (  1.0000000 -0.0000000  0.0000000 )
                  ( -0.0000000  1.0000000  0.0000000 )
                  ( -0.0000000  0.0000000  1.0000000 )


      isym =  2     180 deg rotation - cart. axis [0,0,1]        

 cryst.   s( 2) = (     0          1         -1      )
                  (     1          0         -1      )
                  (     0          0         -1      )

 cart.    s( 2) = ( -1.0000000  0.0000000  0.0000000 )
                  (  0.0000000 -1.0000000  0.0000000 )
                  (  0.0000000 -0.0000000  1.0000000 )


      isym =  3     180 deg rotation - cart. axis [0,1,0]        

 cryst.   s( 3) = (     0         -1          1      )
                  (     0         -1          0      )
                  (     1         -1          0      )

 cart.    s( 3) = ( -1.0000000 -0.0000000 -0.0000000 )
                  (  0.0000000  1.0000000 -0.0000000 )
                  (  0.0000000  0.0000000 -1.0000000 )


      isym =  4     180 deg rotation - cart. axis [1,0,0]        

 cryst.   s( 4) = (    -1          0          0      )
                  (    -1          0          1      )
                  (    -1          1          0      )

 cart.    s( 4) = (  1.0000000  0.0000000 -0.0000000 )
                  ( -0.0000000 -1.0000000 -0.0000000 )
                  ( -0.0000000 -0.0000000 -1.0000000 )


      isym =  5     180 deg rotation - cart. axis [1,1,0]        

 cryst.   s( 5) = (    -1          0          1      )
                  (     0         -1          1      )
                  (     0          0          1      )

 cart.    s( 5) = ( -0.0000000  1.0000000 -0.0000000 )
                  (  1.0000000 -0.0000000 -0.0000000 )
                  (  0.0000000 -0.0000000 -1.0000000 )


      isym =  6     180 deg rotation - cart. axis [1,-1,0]       

 cryst.   s( 6) = (     0         -1          0      )
                  (    -1          0          0      )
                  (     0          0         -1      )

 cart.    s( 6) = (  0.0000000 -1.0000000 -0.0000000 )
                  ( -1.0000000  0.0000000 -0.0000000 )
                  ( -0.0000000  0.0000000 -1.0000000 )


      isym =  7      90 deg rotation - cart. axis [0,0,-1]       

 cryst.   s( 7) = (     0          1          0      )
                  (     0          1         -1      )
                  (    -1          1          0      )

 cart.    s( 7) = (  0.0000000  1.0000000  0.0000000 )
                  ( -1.0000000 -0.0000000  0.0000000 )
                  ( -0.0000000 -0.0000000  1.0000000 )


      isym =  8      90 deg rotation - cart. axis [0,0,1]        

 cryst.   s( 8) = (     1          0         -1      )
                  (     1          0          0      )
                  (     1         -1          0      )

 cart.    s( 8) = ( -0.0000000 -1.0000000  0.0000000 )
                  (  1.0000000  0.0000000  0.0000000 )
                  (  0.0000000  0.0000000  1.0000000 )


      isym =  9     180 deg rotation - cart. axis [1,0,1]        

 cryst.   s( 9) = (    -1          1          0      )
                  (     0          1          0      )
                  (     0          1         -1      )

 cart.    s( 9) = (  0.0000000  0.0000000  1.0000000 )
                  (  0.0000000 -1.0000000 -0.0000000 )
                  (  1.0000000 -0.0000000 -0.0000000 )


      isym = 10     180 deg rotation - cart. axis [-1,0,1]       

 cryst.   s(10) = (     0          0         -1      )
                  (     0         -1          0      )
                  (    -1          0          0      )

 cart.    s(10) = ( -0.0000000  0.0000000 -1.0000000 )
                  ( -0.0000000 -1.0000000  0.0000000 )
                  ( -1.0000000 -0.0000000  0.0000000 )


      isym = 11      90 deg rotation - cart. axis [0,1,0]        

 cryst.   s(11) = (     0          0          1      )
                  (    -1          0          1      )
                  (     0         -1          1      )

 cart.    s(11) = ( -0.0000000 -0.0000000  1.0000000 )
                  ( -0.0000000  1.0000000 -0.0000000 )
                  ( -1.0000000  0.0000000 -0.0000000 )


      isym = 12      90 deg rotation - cart. axis [0,-1,0]       

 cryst.   s(12) = (     1         -1          0      )
                  (     1          0         -1      )
                  (     1          0          0      )

 cart.    s(12) = (  0.0000000 -0.0000000 -1.0000000 )
                  (  0.0000000  1.0000000  0.0000000 )
                  (  1.0000000  0.0000000  0.0000000 )


      isym = 13     180 deg rotation - cart. axis [0,1,1]        

 cryst.   s(13) = (     1          0          0      )
                  (     1         -1          0      )
                  (     1          0         -1      )

 cart.    s(13) = ( -1.0000000  0.0000000 -0.0000000 )
                  (  0.0000000  0.0000000  1.0000000 )
                  (  0.0000000  1.0000000  0.0000000 )


      isym = 14     180 deg rotation - cart. axis [0,1,-1]       

 cryst.   s(14) = (    -1          0          0      )
                  (     0          0         -1      )
                  (     0         -1          0      )

 cart.    s(14) = ( -1.0000000 -0.0000000  0.0000000 )
                  (  0.0000000 -0.0000000 -1.0000000 )
                  (  0.0000000 -1.0000000 -0.0000000 )


      isym = 15      90 deg rotation - cart. axis [-1,0,0]       

 cryst.   s(15) = (     0         -1          1      )
                  (     0          0          1      )
                  (    -1          0          1      )

 cart.    s(15) = (  1.0000000 -0.0000000 -0.0000000 )
                  ( -0.0000000 -0.0000000  1.0000000 )
                  ( -0.0000000 -1.0000000  0.0000000 )


      isym = 16      90 deg rotation - cart. axis [1,0,0]        

 cryst.   s(16) = (     0          1         -1      )
                  (    -1          1          0      )
                  (     0          1          0      )

 cart.    s(16) = (  1.0000000  0.0000000  0.0000000 )
                  ( -0.0000000  0.0000000 -1.0000000 )
                  ( -0.0000000  1.0000000 -0.0000000 )


      isym = 17     120 deg rotation - cart. axis [-1,-1,-1]     

 cryst.   s(17) = (     0          0          1      )
                  (     1          0          0      )
                  (     0          1          0      )

 cart.    s(17) = (  0.0000000  1.0000000 -0.0000000 )
                  (  0.0000000 -0.0000000  1.0000000 )
                  (  1.0000000 -0.0000000  0.0000000 )


      isym = 18     120 deg rotation - cart. axis [-1,1,1]       

 cryst.   s(18) = (     1         -1          0      )
                  (     0         -1          1      )
                  (     0         -1          0      )

 cart.    s(18) = ( -0.0000000 -1.0000000 -0.0000000 )
                  ( -0.0000000  0.0000000  1.0000000 )
                  ( -1.0000000  0.0000000  0.0000000 )


      isym = 19     120 deg rotation - cart. axis [1,1,-1]       

 cryst.   s(19) = (    -1          1          0      )
                  (    -1          0          0      )
                  (    -1          0          1      )

 cart.    s(19) = ( -0.0000000  1.0000000  0.0000000 )
                  ( -0.0000000 -0.0000000 -1.0000000 )
                  ( -1.0000000 -0.0000000 -0.0000000 )


      isym = 20     120 deg rotation - cart. axis [1,-1,1]       

 cryst.   s(20) = (     0          0         -1      )
                  (     0          1         -1      )
                  (     1          0         -1      )

 cart.    s(20) = (  0.0000000 -1.0000000  0.0000000 )
                  (  0.0000000  0.0000000 -1.0000000 )
                  (  1.0000000  0.0000000 -0.0000000 )


      isym = 21     120 deg rotation - cart. axis [1,1,1]        

 cryst.   s(21) = (     0          1          0      )
                  (     0          0          1      )
                  (     1          0          0      )

 cart.    s(21) = ( -0.0000000  0.0000000  1.0000000 )
                  (  1.0000000  0.0000000 -0.0000000 )
                  (  0.0000000  1.0000000 -0.0000000 )


      isym = 22     120 deg rotation - cart. axis [-1,1,-1]      

 cryst.   s(22) = (    -1          0          1      )
                  (    -1          1          0      )
                  (    -1          0          0      )

 cart.    s(22) = (  0.0000000 -0.0000000  1.0000000 )
                  ( -1.0000000 -0.0000000 -0.0000000 )
                  ( -0.0000000 -1.0000000 -0.0000000 )


      isym = 23     120 deg rotation - cart. axis [1,-1,-1]      

 cryst.   s(23) = (     1          0         -1      )
                  (     0          0         -1      )
                  (     0          1         -1      )

 cart.    s(23) = (  0.0000000  0.0000000 -1.0000000 )
                  ( -1.0000000  0.0000000  0.0000000 )
                  ( -0.0000000  1.0000000  0.0000000 )


      isym = 24     120 deg rotation - cart. axis [-1,-1,1]      

 cryst.   s(24) = (     0         -1          0      )
                  (     1         -1          0      )
                  (     0         -1          1      )

 cart.    s(24) = ( -0.0000000 -0.0000000 -1.0000000 )
                  (  1.0000000 -0.0000000  0.0000000 )
                  (  0.0000000 -1.0000000  0.0000000 )


      isym = 25     inversion                                    

 cryst.   s(25) = (    -1          0          0      )
                  (     0         -1          0      )
                  (     0          0         -1      )

 cart.    s(25) = ( -1.0000000  0.0000000 -0.0000000 )
                  (  0.0000000 -1.0000000 -0.0000000 )
                  (  0.0000000 -0.0000000 -1.0000000 )


      isym = 26     inv. 180 deg rotation - cart. axis [0,0,1]   

 cryst.   s(26) = (     0         -1          1      )
                  (    -1          0          1      )
                  (     0          0          1      )

 cart.    s(26) = (  1.0000000 -0.0000000 -0.0000000 )
                  ( -0.0000000  1.0000000 -0.0000000 )
                  ( -0.0000000  0.0000000 -1.0000000 )


      isym = 27     inv. 180 deg rotation - cart. axis [0,1,0]   

 cryst.   s(27) = (     0          1         -1      )
                  (     0          1          0      )
                  (    -1          1          0      )

 cart.    s(27) = (  1.0000000  0.0000000  0.0000000 )
                  ( -0.0000000 -1.0000000  0.0000000 )
                  ( -0.0000000 -0.0000000  1.0000000 )


      isym = 28     inv. 180 deg rotation - cart. axis [1,0,0]   

 cryst.   s(28) = (     1          0          0      )
                  (     1          0         -1      )
                  (     1         -1          0      )

 cart.    s(28) = ( -1.0000000 -0.0000000  0.0000000 )
                  (  0.0000000  1.0000000  0.0000000 )
                  (  0.0000000  0.0000000  1.0000000 )


      isym = 29     inv. 180 deg rotation - cart. axis [1,1,0]   

 cryst.   s(29) = (     1          0         -1      )
                  (     0          1         -1      )
                  (     0          0         -1      )

 cart.    s(29) = (  0.0000000 -1.0000000  0.0000000 )
                  ( -1.0000000  0.0000000  0.0000000 )
                  ( -0.0000000  0.0000000  1.0000000 )


      isym = 30     inv. 180 deg rotation - cart. axis [1,-1,0]  

 cryst.   s(30) = (     0          1          0      )
                  (     1          0          0      )
                  (     0          0          1      )

 cart.    s(30) = ( -0.0000000  1.0000000  0.0000000 )
                  (  1.0000000 -0.0000000  0.0000000 )
                  (  0.0000000 -0.0000000  1.0000000 )


      isym = 31     inv.  90 deg rotation - cart. axis [0,0,-1]  

 cryst.   s(31) = (     0         -1          0      )
                  (     0         -1          1      )
                  (     1         -1          0      )

 cart.    s(31) = ( -0.0000000 -1.0000000 -0.0000000 )
                  (  1.0000000  0.0000000 -0.0000000 )
                  (  0.0000000  0.0000000 -1.0000000 )


      isym = 32     inv.  90 deg rotation - cart. axis [0,0,1]   

 cryst.   s(32) = (    -1          0          1      )
                  (    -1          0          0      )
                  (    -1          1          0      )

 cart.    s(32) = (  0.0000000  1.0000000 -0.0000000 )
                  ( -1.0000000 -0.0000000 -0.0000000 )
                  ( -0.0000000 -0.0000000 -1.0000000 )


      isym = 33     inv. 180 deg rotation - cart. axis [1,0,1]   

 cryst.   s(33) = (     1         -1          0      )
                  (     0         -1          0      )
                  (     0         -1          1      )

 cart.    s(33) = ( -0.0000000 -0.0000000 -1.0000000 )
                  ( -0.0000000  1.0000000  0.0000000 )
                  ( -1.0000000  0.0000000  0.0000000 )


      isym = 34     inv. 180 deg rotation - cart. axis [-1,0,1]  

 cryst.   s(34) = (     0          0          1      )
                  (     0          1          0      )
                  (     1          0          0      )

 cart.    s(34) = (  0.0000000 -0.0000000  1.0000000 )
                  (  0.0000000  1.0000000 -0.0000000 )
                  (  1.0000000  0.0000000 -0.0000000 )


      isym = 35     inv.  90 deg rotation - cart. axis [0,1,0]   

 cryst.   s(35) = (     0          0         -1      )
                  (     1          0         -1      )
                  (     0          1         -1      )

 cart.    s(35) = (  0.0000000  0.0000000 -1.0000000 )
                  (  0.0000000 -1.0000000  0.0000000 )
                  (  1.0000000 -0.0000000  0.0000000 )


      isym = 36     inv.  90 deg rotation - cart. axis [0,-1,0]  

 cryst.   s(36) = (    -1          1          0      )
                  (    -1          0          1      )
                  (    -1          0          0      )

 cart.    s(36) = ( -0.0000000  0.0000000  1.0000000 )
                  ( -0.0000000 -1.0000000 -0.0000000 )
                  ( -1.0000000 -0.0000000 -0.0000000 )


      isym = 37     inv. 180 deg rotation - cart. axis [0,1,1]   

 cryst.   s(37) = (    -1          0          0      )
                  (    -1          1          0      )
                  (    -1          0          1      )

 cart.    s(37) = (  1.0000000 -0.0000000  0.0000000 )
                  ( -0.0000000 -0.0000000 -1.0000000 )
                  ( -0.0000000 -1.0000000 -0.0000000 )


      isym = 38     inv. 180 deg rotation - cart. axis [0,1,-1]  

 cryst.   s(38) = (     1          0          0      )
                  (     0          0          1      )
                  (     0          1          0      )

 cart.    s(38) = (  1.0000000  0.0000000 -0.0000000 )
                  ( -0.0000000  0.0000000  1.0000000 )
                  ( -0.0000000  1.0000000  0.0000000 )


      isym = 39     inv.  90 deg rotation - cart. axis [-1,0,0]  

 cryst.   s(39) = (     0          1         -1      )
                  (     0          0         -1      )
                  (     1          0         -1      )

 cart.    s(39) = ( -1.0000000  0.0000000  0.0000000 )
                  (  0.0000000  0.0000000 -1.0000000 )
                  (  0.0000000  1.0000000 -0.0000000 )


      isym = 40     inv.  90 deg rotation - cart. axis [1,0,0]   

 cryst.   s(40) = (     0         -1          1      )
                  (     1         -1          0      )
                  (     0         -1          0      )

 cart.    s(40) = ( -1.0000000 -0.0000000 -0.0000000 )
                  (  0.0000000 -0.0000000  1.0000000 )
                  (  0.0000000 -1.0000000  0.0000000 )


      isym = 41     inv. 120 deg rotation - cart. axis [-1,-1,-1]

 cryst.   s(41) = (     0          0         -1      )
                  (    -1          0          0      )
                  (     0         -1          0      )

 cart.    s(41) = ( -0.0000000 -1.0000000  0.0000000 )
                  ( -0.0000000  0.0000000 -1.0000000 )
                  ( -1.0000000  0.0000000 -0.0000000 )


      isym = 42     inv. 120 deg rotation - cart. axis [-1,1,1]  

 cryst.   s(42) = (    -1          1          0      )
                  (     0          1         -1      )
                  (     0          1          0      )

 cart.    s(42) = (  0.0000000  1.0000000  0.0000000 )
                  (  0.0000000 -0.0000000 -1.0000000 )
                  (  1.0000000 -0.0000000 -0.0000000 )


      isym = 43     inv. 120 deg rotation - cart. axis [1,1,-1]  

 cryst.   s(43) = (     1         -1          0      )
                  (     1          0          0      )
                  (     1          0         -1      )

 cart.    s(43) = (  0.0000000 -1.0000000 -0.0000000 )
                  (  0.0000000  0.0000000  1.0000000 )
                  (  1.0000000  0.0000000  0.0000000 )


      isym = 44     inv. 120 deg rotation - cart. axis [1,-1,1]  

 cryst.   s(44) = (     0          0          1      )
                  (     0         -1          1      )
                  (    -1          0          1      )

 cart.    s(44) = ( -0.0000000  1.0000000 -0.0000000 )
                  ( -0.0000000 -0.0000000  1.0000000 )
                  ( -1.0000000 -0.0000000  0.0000000 )


      isym = 45     inv. 120 deg rotation - cart. axis [1,1,1]   

 cryst.   s(45) = (     0         -1          0      )
                  (     0          0         -1      )
                  (    -1          0          0      )

 cart.    s(45) = (  0.0000000 -0.0000000 -1.0000000 )
                  ( -1.0000000 -0.0000000  0.0000000 )
                  ( -0.0000000 -1.0000000  0.0000000 )


      isym = 46     inv. 120 deg rotation - cart. axis [-1,1,-1] 

 cryst.   s(46) = (     1          0         -1      )
                  (     1         -1          0      )
                  (     1          0          0      )

 cart.    s(46) = ( -0.0000000  0.0000000 -1.0000000 )
                  (  1.0000000  0.0000000  0.0000000 )
                  (  0.0000000  1.0000000  0.0000000 )


      isym = 47     inv. 120 deg rotation - cart. axis [1,-1,-1] 

 cryst.   s(47) = (    -1          0          1      )
                  (     0          0          1      )
                  (     0         -1          1      )

 cart.    s(47) = ( -0.0000000 -0.0000000  1.0000000 )
                  (  1.0000000 -0.0000000 -0.0000000 )
                  (  0.0000000 -1.0000000 -0.0000000 )


      isym = 48     inv. 120 deg rotation - cart. axis [-1,-1,1] 

 cryst.   s(48) = (     0          1          0      )
                  (    -1          1          0      )
                  (     0          1         -1      )

 cart.    s(48) = (  0.0000000  0.0000000  1.0000000 )
                  ( -1.0000000  0.0000000 -0.0000000 )
                  ( -0.0000000  1.0000000 -0.0000000 )


   Cartesian axes

     site n.     atom                  positions (alat units)
         1        Co     tau(   1) = (   0.0000000   0.0000000   0.0000000  )
         2        N      tau(   2) = (   0.0000000   0.0000000   1.1455130  )
         3        N      tau(   3) = (   0.7071068   0.9758074   0.0000000  )
         4        N      tau(   4) = (   0.2687006  -0.0000000  -0.0000000  )
         5        N      tau(   5) = (   0.7071068   0.0000000   0.9758074  )
         6        N      tau(   6) = (   0.7071068   0.4384062  -0.0000000  )
         7        N      tau(   7) = (   1.1455130  -0.0000000  -0.0000000  )
         8        Cl     tau(   8) = (   0.7071068   0.0000000   0.0000000  )
         9        Cl     tau(   9) = (   0.3535534   0.3535534   1.0606602  )
        10        Cl     tau(  10) = (   0.3535534   1.0606602   1.0606602  )

   Crystallographic axes

     site n.     atom                  positions (cryst. coord.)
         1        Co     tau(   1) = (  0.0000000  0.0000000  0.0000000  )
         2        N      tau(   2) = (  0.8100000  0.8100000 -0.8100000  )
         3        N      tau(   3) = (  0.1900000 -0.1900000  1.1900000  )
         4        N      tau(   4) = ( -0.1900000  0.1900000  0.1900000  )
         5        N      tau(   5) = (  0.1900000  1.1900000 -0.1900000  )
         6        N      tau(   6) = ( -0.1900000  0.1900000  0.8100000  )
         7        N      tau(   7) = ( -0.8100000  0.8100000  0.8100000  )
         8        Cl     tau(   8) = ( -0.5000000  0.5000000  0.5000000  )
         9        Cl     tau(   9) = (  0.7500000  0.7500000 -0.2500000  )
        10        Cl     tau(  10) = (  1.2500000  0.2500000  0.2500000  )

     number of k points=    20  Marzari-Vanderbilt smearing, width (Ry)=  0.0200
                       cart. coord. in units 2pi/alat
        k(    1) = (   0.0000000   0.0000000   0.0000000), wk =   0.0029155
        k(    2) = (   0.1010153   0.1010153  -0.1010153), wk =   0.0233236
        k(    3) = (   0.2020305   0.2020305  -0.2020305), wk =   0.0233236
        k(    4) = (   0.3030458   0.3030458  -0.3030458), wk =   0.0233236
        k(    5) = (   0.2020305  -0.0000000   0.0000000), wk =   0.0174927
        k(    6) = (   0.3030458   0.1010153  -0.1010153), wk =   0.0699708
        k(    7) = (   0.4040610   0.2020305  -0.2020305), wk =   0.0699708
        k(    8) = (  -0.2020305  -0.4040610   0.4040610), wk =   0.0699708
        k(    9) = (  -0.1010153  -0.3030458   0.3030458), wk =   0.0699708
        k(   10) = (  -0.0000000  -0.2020305   0.2020305), wk =   0.0349854
        k(   11) = (   0.4040610  -0.0000000   0.0000000), wk =   0.0174927
        k(   12) = (   0.5050763   0.1010153  -0.1010153), wk =   0.0699708
        k(   13) = (  -0.1010153  -0.5050763   0.5050763), wk =   0.0699708
        k(   14) = (   0.0000000  -0.4040610   0.4040610), wk =   0.0349854
        k(   15) = (   0.6060915  -0.0000000   0.0000000), wk =   0.0174927
        k(   16) = (  -0.0000000  -0.6060915   0.6060915), wk =   0.0349854
        k(   17) = (   0.4040610   0.2020305   0.0000000), wk =   0.0699708
        k(   18) = (  -0.2020305  -0.4040610   0.6060915), wk =   0.1399417
        k(   19) = (  -0.1010153  -0.5050763   0.7071068), wk =   0.0699708
        k(   20) = (   0.0000000  -0.4040610   0.6060915), wk =   0.0699708

                       cryst. coord.
        k(    1) = (   0.0000000   0.0000000   0.0000000), wk =   0.0029155
        k(    2) = (   0.0000000   0.0000000   0.1428571), wk =   0.0233236
        k(    3) = (   0.0000000   0.0000000   0.2857143), wk =   0.0233236
        k(    4) = (  -0.0000000  -0.0000000   0.4285714), wk =   0.0233236
        k(    5) = (  -0.0000000   0.1428571   0.1428571), wk =   0.0174927
        k(    6) = (  -0.0000000   0.1428571   0.2857143), wk =   0.0699708
        k(    7) = (  -0.0000000   0.1428571   0.4285714), wk =   0.0699708
        k(    8) = (  -0.0000000   0.1428571  -0.4285714), wk =   0.0699708
        k(    9) = (   0.0000000   0.1428571  -0.2857143), wk =   0.0699708
        k(   10) = (  -0.0000000   0.1428571  -0.1428571), wk =   0.0349854
        k(   11) = (  -0.0000000   0.2857143   0.2857143), wk =   0.0174927
        k(   12) = (  -0.0000000   0.2857143   0.4285714), wk =   0.0699708
        k(   13) = (  -0.0000000   0.2857143  -0.4285714), wk =   0.0699708
        k(   14) = (  -0.0000000   0.2857143  -0.2857143), wk =   0.0349854
        k(   15) = (   0.0000000   0.4285714   0.4285714), wk =   0.0174927
        k(   16) = (   0.0000000   0.4285714  -0.4285714), wk =   0.0349854
        k(   17) = (   0.1428571   0.2857143   0.4285714), wk =   0.0699708
        k(   18) = (   0.1428571   0.2857143  -0.4285714), wk =   0.1399417
        k(   19) = (   0.1428571   0.4285714  -0.4285714), wk =   0.0699708
        k(   20) = (   0.1428571   0.4285714  -0.2857143), wk =   0.0699708

     Dense  grid:   443559 G-vectors     FFT dimensions: ( 108, 108, 108)

     Smooth grid:   157117 G-vectors     FFT dimensions: (  75,  75,  75)

     Dynamical RAM for                 wfc:       1.68 MB

     Dynamical RAM for     wfc (w. buffer):      11.79 MB

     Dynamical RAM for           str. fact:       2.54 MB

     Dynamical RAM for           local pot:       0.00 MB

     Dynamical RAM for          nlocal pot:       4.49 MB

     Dynamical RAM for                qrad:       5.27 MB

     Dynamical RAM for          rho,v,vnew:      12.55 MB

     Dynamical RAM for               rhoin:       4.18 MB

     Dynamical RAM for            rho*nmix:      27.07 MB

     Dynamical RAM for           G-vectors:       3.32 MB

     Dynamical RAM for          h,s,v(r/c):       0.09 MB

     Dynamical RAM for          <psi|beta>:       0.08 MB

     Dynamical RAM for      wfcinit/wfcrot:       3.72 MB

     Dynamical RAM for           addusdens:      24.77 MB

     Dynamical RAM for          addusforce:      25.30 MB

     Dynamical RAM for         addusstress:      25.20 MB

     Estimated static dynamical RAM per process >      55.00 MB

     Estimated max dynamical RAM per process >     107.38 MB

     Estimated total dynamical RAM >       4.60 GB

     Check: negative core charge=   -0.000002
     Generating pointlists ...
     new r_m :   0.1808 (alat units)  2.7548 (a.u.) for type    1
     new r_m :   0.1108 (alat units)  1.6884 (a.u.) for type    2
     new r_m :   0.1108 (alat units)  1.6884 (a.u.) for type    3

     The initial density is read from file :
     ./out/aiida.save/charge-density


     negative rho (up, down):  2.224E-02 2.328E-02
     Starting wfcs are   49 randomized atomic wfcs

     total cpu time spent up to now is        2.8 secs

     per-process dynamical memory:    84.6 Mb

     Self-consistent Calculation

     iteration #  1     ecut=    60.00 Ry     beta= 0.40
     PPCG style diagonalization

---- Real-time Memory Report at c_bands before calling an iterative solver
           113 MiB given to the printing process from OS
            82 MiB allocation reported by mallinfo(arena+hblkhd)
        482937 MiB available memory on the node where the printing process lives
------------------
     ethr =  1.00E-05,  avg # of iterations =  7.5

     negative rho (up, down):  2.226E-02 2.328E-02

     total cpu time spent up to now is       10.2 secs

     total energy              =    -516.26579982 Ry
     estimated scf accuracy    <       0.01955814 Ry

     total magnetization       =    12.04 Bohr mag/cell
     absolute magnetization    =    18.01 Bohr mag/cell

     iteration #  2     ecut=    60.00 Ry     beta= 0.40
     PPCG style diagonalization

---- Real-time Memory Report at c_bands before calling an iterative solver
           143 MiB given to the printing process from OS
           110 MiB allocation reported by mallinfo(arena+hblkhd)
        481428 MiB available memory on the node where the printing process lives
------------------
     ethr =  2.88E-05,  avg # of iterations =  5.5

     negative rho (up, down):  2.225E-02 2.325E-02

     total cpu time spent up to now is       15.4 secs

     total energy              =    -516.18685373 Ry
     estimated scf accuracy    <       7.25498050 Ry

     total magnetization       =    13.69 Bohr mag/cell
     absolute magnetization    =    15.47 Bohr mag/cell

     iteration #  3     ecut=    60.00 Ry     beta= 0.40
     PPCG style diagonalization

---- Real-time Memory Report at c_bands before calling an iterative solver
           145 MiB given to the printing process from OS
           111 MiB allocation reported by mallinfo(arena+hblkhd)
        481397 MiB available memory on the node where the printing process lives
------------------
     ethr =  2.88E-05,  avg # of iterations =  5.2

     negative rho (up, down):  2.225E-02 2.325E-02

     total cpu time spent up to now is       20.4 secs

     total energy              =    -516.27437875 Ry
     estimated scf accuracy    <       0.30787658 Ry

     total magnetization       =    12.31 Bohr mag/cell
     absolute magnetization    =    18.33 Bohr mag/cell

     iteration #  4     ecut=    60.00 Ry     beta= 0.40
     PPCG style diagonalization

---- Real-time Memory Report at c_bands before calling an iterative solver
           146 MiB given to the printing process from OS
           112 MiB allocation reported by mallinfo(arena+hblkhd)
        481356 MiB available memory on the node where the printing process lives
------------------
     ethr =  2.88E-05,  avg # of iterations =  2.9

     negative rho (up, down):  2.224E-02 2.326E-02

     total cpu time spent up to now is       23.2 secs

     total energy              =    -516.27699254 Ry
     estimated scf accuracy    <       0.00261882 Ry

     total magnetization       =    12.40 Bohr mag/cell
     absolute magnetization    =    18.01 Bohr mag/cell

     iteration #  5     ecut=    60.00 Ry     beta= 0.40
     PPCG style diagonalization

---- Real-time Memory Report at c_bands before calling an iterative solver
           148 MiB given to the printing process from OS
           113 MiB allocation reported by mallinfo(arena+hblkhd)
        481329 MiB available memory on the node where the printing process lives
------------------
     ethr =  3.85E-06,  avg # of iterations =  3.3

     negative rho (up, down):  2.223E-02 2.328E-02

     total cpu time spent up to now is       26.7 secs

     total energy              =    -516.27672694 Ry
     estimated scf accuracy    <       0.00476834 Ry

     total magnetization       =    12.34 Bohr mag/cell
     absolute magnetization    =    17.90 Bohr mag/cell

     iteration #  6     ecut=    60.00 Ry     beta= 0.40
     PPCG style diagonalization

---- Real-time Memory Report at c_bands before calling an iterative solver
           150 MiB given to the printing process from OS
           114 MiB allocation reported by mallinfo(arena+hblkhd)
        481301 MiB available memory on the node where the printing process lives
------------------
     ethr =  3.85E-06,  avg # of iterations =  2.2

     negative rho (up, down):  2.221E-02 2.329E-02

     total cpu time spent up to now is       29.0 secs

     total energy              =    -516.27665761 Ry
     estimated scf accuracy    <       0.00454444 Ry

     total magnetization       =    12.19 Bohr mag/cell
     absolute magnetization    =    17.75 Bohr mag/cell

     iteration #  7     ecut=    60.00 Ry     beta= 0.40
     PPCG style diagonalization

---- Real-time Memory Report at c_bands before calling an iterative solver
           151 MiB given to the printing process from OS
           116 MiB allocation reported by mallinfo(arena+hblkhd)
        481287 MiB available memory on the node where the printing process lives
------------------
     ethr =  3.85E-06,  avg # of iterations =  2.6

     negative rho (up, down):  2.220E-02 2.329E-02

     total cpu time spent up to now is       31.7 secs

     total energy              =    -516.27671670 Ry
     estimated scf accuracy    <       0.00087252 Ry

     total magnetization       =    12.06 Bohr mag/cell
     absolute magnetization    =    17.68 Bohr mag/cell

     iteration #  8     ecut=    60.00 Ry     beta= 0.40
     PPCG style diagonalization

---- Real-time Memory Report at c_bands before calling an iterative solver
           153 MiB given to the printing process from OS
           117 MiB allocation reported by mallinfo(arena+hblkhd)
        481262 MiB available memory on the node where the printing process lives
------------------
     ethr =  1.28E-06,  avg # of iterations =  3.4

     negative rho (up, down):  2.220E-02 2.329E-02

     total cpu time spent up to now is       35.2 secs

     total energy              =    -516.27672466 Ry
     estimated scf accuracy    <       0.00055780 Ry

     total magnetization       =    12.02 Bohr mag/cell
     absolute magnetization    =    17.67 Bohr mag/cell

     iteration #  9     ecut=    60.00 Ry     beta= 0.40
     PPCG style diagonalization

---- Real-time Memory Report at c_bands before calling an iterative solver
           154 MiB given to the printing process from OS
           118 MiB allocation reported by mallinfo(arena+hblkhd)
        481242 MiB available memory on the node where the printing process lives
------------------
     ethr =  8.20E-07,  avg # of iterations =  2.1

     negative rho (up, down):  2.220E-02 2.329E-02

     total cpu time spent up to now is       37.4 secs

     total energy              =    -516.27672181 Ry
     estimated scf accuracy    <       0.00039577 Ry

     total magnetization       =    12.02 Bohr mag/cell
     absolute magnetization    =    17.68 Bohr mag/cell

     iteration # 10     ecut=    60.00 Ry     beta= 0.40
     PPCG style diagonalization

---- Real-time Memory Report at c_bands before calling an iterative solver
           155 MiB given to the printing process from OS
           119 MiB allocation reported by mallinfo(arena+hblkhd)
        481228 MiB available memory on the node where the printing process lives
------------------
     ethr =  5.82E-07,  avg # of iterations =  2.4

     negative rho (up, down):  2.220E-02 2.329E-02

     total cpu time spent up to now is       39.8 secs

     total energy              =    -516.27672129 Ry
     estimated scf accuracy    <       0.00009807 Ry

     total magnetization       =    12.02 Bohr mag/cell
     absolute magnetization    =    17.68 Bohr mag/cell

     iteration # 11     ecut=    60.00 Ry     beta= 0.40
     PPCG style diagonalization

---- Real-time Memory Report at c_bands before calling an iterative solver
           156 MiB given to the printing process from OS
           119 MiB allocation reported by mallinfo(arena+hblkhd)
        481219 MiB available memory on the node where the printing process lives
------------------
     ethr =  1.44E-07,  avg # of iterations =  3.5

     negative rho (up, down):  2.220E-02 2.329E-02

     total cpu time spent up to now is       43.3 secs

     total energy              =    -516.27672272 Ry
     estimated scf accuracy    <       0.00000338 Ry

     total magnetization       =    12.01 Bohr mag/cell
     absolute magnetization    =    17.68 Bohr mag/cell

     iteration # 12     ecut=    60.00 Ry     beta= 0.40
     PPCG style diagonalization

---- Real-time Memory Report at c_bands before calling an iterative solver
           156 MiB given to the printing process from OS
           119 MiB allocation reported by mallinfo(arena+hblkhd)
        481212 MiB available memory on the node where the printing process lives
------------------
     ethr =  4.97E-09,  avg # of iterations =  4.8

     negative rho (up, down):  2.220E-02 2.329E-02

     total cpu time spent up to now is       48.4 secs

     total energy              =    -516.27672269 Ry
     estimated scf accuracy    <       0.00000548 Ry

     total magnetization       =    12.01 Bohr mag/cell
     absolute magnetization    =    17.68 Bohr mag/cell

     iteration # 13     ecut=    60.00 Ry     beta= 0.40
     PPCG style diagonalization

---- Real-time Memory Report at c_bands before calling an iterative solver
           156 MiB given to the printing process from OS
           119 MiB allocation reported by mallinfo(arena+hblkhd)
        481212 MiB available memory on the node where the printing process lives
------------------
     ethr =  4.97E-09,  avg # of iterations =  3.1

     negative rho (up, down):  2.220E-02 2.329E-02

     total cpu time spent up to now is       51.5 secs

     total energy              =    -516.27672277 Ry
     estimated scf accuracy    <       0.00000026 Ry

     total magnetization       =    12.01 Bohr mag/cell
     absolute magnetization    =    17.68 Bohr mag/cell

     iteration # 14     ecut=    60.00 Ry     beta= 0.40
     PPCG style diagonalization

---- Real-time Memory Report at c_bands before calling an iterative solver
           156 MiB given to the printing process from OS
           119 MiB allocation reported by mallinfo(arena+hblkhd)
        481204 MiB available memory on the node where the printing process lives
------------------
     ethr =  3.78E-10,  avg # of iterations =  3.8

     negative rho (up, down):  2.220E-02 2.329E-02

     total cpu time spent up to now is       55.2 secs

     total energy              =    -516.27672278 Ry
     estimated scf accuracy    <       0.00000002 Ry

     total magnetization       =    12.01 Bohr mag/cell
     absolute magnetization    =    17.68 Bohr mag/cell

     iteration # 15     ecut=    60.00 Ry     beta= 0.40
     PPCG style diagonalization

---- Real-time Memory Report at c_bands before calling an iterative solver
           156 MiB given to the printing process from OS
           119 MiB allocation reported by mallinfo(arena+hblkhd)
        481202 MiB available memory on the node where the printing process lives
------------------
     ethr =  2.97E-11,  avg # of iterations =  4.5

     negative rho (up, down):  2.220E-02 2.329E-02

     total cpu time spent up to now is       59.5 secs

     total energy              =    -516.27672278 Ry
     estimated scf accuracy    <       0.00000001 Ry

     total magnetization       =    12.01 Bohr mag/cell
     absolute magnetization    =    17.68 Bohr mag/cell

     iteration # 16     ecut=    60.00 Ry     beta= 0.40
     PPCG style diagonalization

---- Real-time Memory Report at c_bands before calling an iterative solver
           156 MiB given to the printing process from OS
           119 MiB allocation reported by mallinfo(arena+hblkhd)
        481198 MiB available memory on the node where the printing process lives
------------------
     ethr =  1.58E-11,  avg # of iterations =  2.8

     negative rho (up, down):  2.220E-02 2.329E-02

     Magnetic moment per site  (integrated on atomic sphere of radius R)
     atom   1 (R=0.111)  charge= 14.6517  magn= -1.2992
     atom   2 (R=0.111)  charge=  3.9618  magn=  1.9666
     atom   3 (R=0.111)  charge=  3.9618  magn=  1.9666
     atom   4 (R=0.111)  charge=  3.9618  magn=  1.9666
     atom   5 (R=0.111)  charge=  3.9618  magn=  1.9666
     atom   6 (R=0.111)  charge=  3.9618  magn=  1.9666
     atom   7 (R=0.111)  charge=  3.9618  magn=  1.9666
     atom   8 (R=0.181)  charge=  6.6394  magn=  0.0564
     atom   9 (R=0.181)  charge=  6.6212  magn= -0.7098
     atom  10 (R=0.181)  charge=  6.6212  magn= -0.7098

     total cpu time spent up to now is       62.3 secs

     End of self-consistent calculation

 ------ SPIN UP ------------


          k = 0.0000 0.0000 0.0000 ( 19603 PWs)   bands (ev):

   -97.3609 -60.7885 -60.7885 -60.7885 -17.2452 -16.6348 -16.6348 -16.6348
   -16.4762 -16.4762 -15.3733 -15.2300 -15.2292  -6.7851  -6.1127  -6.1127
    -6.1127  -6.0230  -6.0230  -5.8873  -5.8873  -5.8873  -4.8744  -4.8744
    -4.8744  -4.6613  -4.6613  -4.6613  -4.4636  -4.4636  -4.4636  -3.4384
    -3.4384  -3.4384  -3.3682  -3.3682  -3.3682  -3.2157  -3.2157  -3.2157
    -3.1239  -3.1239  -3.1239  -1.5838  -1.5838

     occupation numbers 
     1.0000   1.0000   1.0000   1.0000   1.0000   1.0000   1.0000   1.0000
     1.0000   1.0000   1.0000   1.0000   1.0000   1.0000   1.0000   1.0000
     1.0000   1.0000   1.0000   1.0000   1.0000   1.0000   1.0000   1.0000
     1.0000   1.0000   1.0000   1.0000   1.0000   1.0000   1.0000   1.0348
     1.0348   1.0348   0.9327   0.9327   0.9327   0.5520   0.5520   0.5520
     0.3174   0.3174   0.3174   0.0000   0.0000

          k = 0.1010 0.1010-0.1010 ( 19657 PWs)   bands (ev):

   -97.3609 -60.7885 -60.7885 -60.7885 -17.2441 -16.6365 -16.6346 -16.6346
   -16.4765 -16.4765 -15.3726 -15.2301 -15.2295  -6.7872  -6.1089  -6.1089
    -6.1071  -6.0302  -6.0302  -5.8797  -5.8760  -5.8760  -4.8789  -4.8789
    -4.8730  -4.6649  -4.6599  -4.6599  -4.4678  -4.4678  -4.4653  -3.4404
    -3.4359  -3.4359  -3.3697  -3.3697  -3.3446  -3.2432  -3.2222  -3.2222
    -3.1395  -3.1298  -3.1298  -1.5755  -1.5755

     occupation numbers 
     1.0000   1.0000   1.0000   1.0000   1.0000   1.0000   1.0000   1.0000
     1.0000   1.0000   1.0000   1.0000   1.0000   1.0000   1.0000   1.0000
     1.0000   1.0000   1.0000   1.0000   1.0000   1.0000   1.0000   1.0000
     1.0000   1.0000   1.0000   1.0000   1.0000   1.0000   1.0000   1.0368
     1.0323   1.0323   0.9355   0.9355   0.8852   0.6281   0.5700   0.5700
     0.3534   0.3308   0.3308   0.0000   0.0000

          k = 0.2020 0.2020-0.2020 ( 19603 PWs)   bands (ev):

   -97.3609 -60.7885 -60.7885 -60.7885 -17.2414 -16.6403 -16.6342 -16.6342
   -16.4770 -16.4770 -15.3711 -15.2305 -15.2300  -6.7917  -6.1009  -6.1009
    -6.0942  -6.0426  -6.0426  -5.8628  -5.8537  -5.8537  -4.8895  -4.8895
    -4.8698  -4.6718  -4.6557  -4.6557  -4.4773  -4.4773  -4.4689  -3.4417
    -3.4417  -3.4309  -3.3580  -3.3580  -3.3090  -3.2925  -3.2397  -3.2397
    -3.1839  -3.1437  -3.1437  -1.5573  -1.5573

     occupation numbers 
     1.0000   1.0000   1.0000   1.0000   1.0000   1.0000   1.0000   1.0000
     1.0000   1.0000   1.0000   1.0000   1.0000   1.0000   1.0000   1.0000
     1.0000   1.0000   1.0000   1.0000   1.0000   1.0000   1.0000   1.0000
     1.0000   1.0000   1.0000   1.0000   1.0000   1.0000   1.0000   1.0381
     1.0381   1.0269   0.9129   0.9129   0.8027   0.7611   0.6186   0.6186
     0.4657   0.3636   0.3636   0.0000   0.0000

          k = 0.3030 0.3030-0.3030 ( 19599 PWs)   bands (ev):

   -97.3609 -60.7885 -60.7885 -60.7885 -17.2393 -16.6434 -16.6338 -16.6338
   -16.4775 -16.4775 -15.3699 -15.2308 -15.2303  -6.7953  -6.0955  -6.0955
    -6.0834  -6.0494  -6.0494  -5.8496  -5.8377  -5.8377  -4.8985  -4.8985
    -4.8672  -4.6765  -4.6516  -4.6516  -4.4852  -4.4852  -4.4718  -3.4543
    -3.4543  -3.4233  -3.3315  -3.3315  -3.3161  -3.2828  -3.2621  -3.2621
    -3.2338  -3.1555  -3.1555  -1.5430  -1.5430

     occupation numbers 
     1.0000   1.0000   1.0000   1.0000   1.0000   1.0000   1.0000   1.0000
     1.0000   1.0000   1.0000   1.0000   1.0000   1.0000   1.0000   1.0000
     1.0000   1.0000   1.0000   1.0000   1.0000   1.0000   1.0000   1.0000
     1.0000   1.0000   1.0000   1.0000   1.0000   1.0000   1.0000   1.0496
     1.0496   1.0180   0.8562   0.8562   0.8200   0.7359   0.6803   0.6803
     0.6021   0.3925   0.3925   0.0000   0.0000

          k = 0.2020-0.0000 0.0000 ( 19599 PWs)   bands (ev):

   -97.3609 -60.7885 -60.7885 -60.7885 -17.2437 -16.6361 -16.6349 -16.6349
   -16.4771 -16.4762 -15.3724 -15.2302 -15.2296  -6.7867  -6.1087  -6.1058
    -6.1058  -6.0382  -6.0229  -5.8816  -5.8816  -5.8632  -4.8786  -4.8786
    -4.8767  -4.6705  -4.6705  -4.6493  -4.4699  -4.4699  -4.4638  -3.4393
    -3.4393  -3.4227  -3.3939  -3.3427  -3.3427  -3.2468  -3.2262  -3.2262
    -3.1388  -3.1345  -3.1345  -1.5837  -1.5668

     occupation numbers 
     1.0000   1.0000   1.0000   1.0000   1.0000   1.0000   1.0000   1.0000
     1.0000   1.0000   1.0000   1.0000   1.0000   1.0000   1.0000   1.0000
     1.0000   1.0000   1.0000   1.0000   1.0000   1.0000   1.0000   1.0000
     1.0000   1.0000   1.0000   1.0000   1.0000   1.0000   1.0000   1.0358
     1.0358   1.0173   0.9772   0.8810   0.8810   0.6381   0.5810   0.5810
     0.3518   0.3417   0.3417   0.0000   0.0000

          k = 0.3030 0.1010-0.1010 ( 19585 PWs)   bands (ev):

   -97.3609 -60.7885 -60.7885 -60.7885 -17.2416 -16.6386 -16.6348 -16.6345
   -16.4782 -16.4764 -15.3712 -15.2304 -15.2300  -6.7881  -6.1025  -6.0978
    -6.0957  -6.0474  -6.0293  -5.8698  -5.8671  -5.8460  -4.8886  -4.8862
    -4.8749  -4.6789  -4.6742  -4.6505  -4.4777  -4.4768  -4.4663  -3.4351
    -3.4336  -3.4144  -3.3915  -3.3256  -3.3115  -3.2879  -3.2433  -3.2373
    -3.1706  -3.1479  -3.1471  -1.5754  -1.5561

     occupation numbers 
     1.0000   1.0000   1.0000   1.0000   1.0000   1.0000   1.0000   1.0000
     1.0000   1.0000   1.0000   1.0000   1.0000   1.0000   1.0000   1.0000
     1.0000   1.0000   1.0000   1.0000   1.0000   1.0000   1.0000   1.0000
     1.0000   1.0000   1.0000   1.0000   1.0000   1.0000   1.0000   1.0314
     1.0298   1.0068   0.9734   0.8425   0.8089   0.7490   0.6285   0.6120
     0.4308   0.3737   0.3718   0.0000   0.0000

          k = 0.4041 0.2020-0.2020 ( 19625 PWs)   bands (ev):

   -97.3609 -60.7885 -60.7885 -60.7885 -17.2394 -16.6415 -16.6343 -16.6342
   -16.4789 -16.4769 -15.3699 -15.2307 -15.2303  -6.7902  -6.0952  -6.0915
    -6.0845  -6.0503  -6.0410  -5.8537  -5.8465  -5.8366  -4.8977  -4.8956
    -4.8727  -4.6839  -4.6681  -4.6623  -4.4853  -4.4828  -4.4715  -3.4369
    -3.4303  -3.4144  -3.3537  -3.3216  -3.3145  -3.2794  -3.2660  -3.2530
    -3.2194  -3.1640  -3.1607  -1.5572  -1.5512

     occupation numbers 
     1.0000   1.0000   1.0000   1.0000   1.0000   1.0000   1.0000   1.0000
     1.0000   1.0000   1.0000   1.0000   1.0000   1.0000   1.0000   1.0000
     1.0000   1.0000   1.0000   1.0000   1.0000   1.0000   1.0000   1.0000
     1.0000   1.0000   1.0000   1.0000   1.0000   1.0000   1.0000   1.0333
     1.0261   1.0068   0.9042   0.8333   0.8163   0.7267   0.6907   0.6551
     0.5624   0.4139   0.4055   0.0000   0.0000

          k =-0.2020-0.4041 0.4041 ( 19616 PWs)   bands (ev):

   -97.3609 -60.7885 -60.7885 -60.7885 -17.2387 -16.6425 -16.6344 -16.6338
   -16.4786 -16.4774 -15.3696 -15.2309 -15.2304  -6.7914  -6.0919  -6.0910
    -6.0810  -6.0499  -6.0456  -5.8478  -5.8388  -5.8351  -4.9005  -4.8977
    -4.8721  -4.6888  -4.6682  -4.6573  -4.4867  -4.4844  -4.4743  -3.4414
    -3.4398  -3.4095  -3.3367  -3.3257  -3.2984  -3.2872  -3.2678  -3.2607
    -3.2383  -3.1725  -3.1626  -1.5559  -1.5430

     occupation numbers 
     1.0000   1.0000   1.0000   1.0000   1.0000   1.0000   1.0000   1.0000
     1.0000   1.0000   1.0000   1.0000   1.0000   1.0000   1.0000   1.0000
     1.0000   1.0000   1.0000   1.0000   1.0000   1.0000   1.0000   1.0000
     1.0000   1.0000   1.0000   1.0000   1.0000   1.0000   1.0000   1.0378
     1.0363   1.0002   0.8680   0.8428   0.7762   0.7472   0.6956   0.6763
     0.6146   0.4359   0.4104   0.0000   0.0000

          k =-0.1010-0.3030 0.3030 ( 19598 PWs)   bands (ev):

   -97.3609 -60.7885 -60.7885 -60.7885 -17.2401 -16.6409 -16.6349 -16.6338
   -16.4777 -16.4775 -15.3703 -15.2306 -15.2303  -6.7909  -6.0962  -6.0941
    -6.0885  -6.0522  -6.0374  -5.8611  -5.8469  -5.8396  -4.8970  -4.8894
    -4.8731  -4.6907  -4.6633  -4.6497  -4.4813  -4.4809  -4.4719  -3.4461
    -3.4328  -3.4098  -3.3781  -3.3304  -3.3032  -3.2845  -3.2584  -3.2421
    -3.2033  -3.1654  -3.1516  -1.5668  -1.5431

     occupation numbers 
     1.0000   1.0000   1.0000   1.0000   1.0000   1.0000   1.0000   1.0000
     1.0000   1.0000   1.0000   1.0000   1.0000   1.0000   1.0000   1.0000
     1.0000   1.0000   1.0000   1.0000   1.0000   1.0000   1.0000   1.0000
     1.0000   1.0000   1.0000   1.0000   1.0000   1.0000   1.0000   1.0424
     1.0290   1.0005   0.9508   0.8537   0.7883   0.7403   0.6702   0.6253
     0.5181   0.4175   0.3829   0.0000   0.0000

          k =-0.0000-0.2020 0.2020 ( 19617 PWs)   bands (ev):

   -97.3609 -60.7885 -60.7885 -60.7885 -17.2424 -16.6382 -16.6351 -16.6341
   -16.4771 -16.4767 -15.3717 -15.2303 -15.2298  -6.7889  -6.1044  -6.1011
    -6.1008  -6.0441  -6.0302  -5.8762  -5.8629  -5.8568  -4.8873  -4.8810
    -4.8739  -4.6795  -4.6603  -4.6507  -4.4743  -4.4726  -4.4673  -3.4460
    -3.4289  -3.4171  -3.4027  -3.3360  -3.3219  -3.2766  -3.2356  -3.2285
    -3.1585  -3.1466  -3.1370  -1.5755  -1.5573

     occupation numbers 
     1.0000   1.0000   1.0000   1.0000   1.0000   1.0000   1.0000   1.0000
     1.0000   1.0000   1.0000   1.0000   1.0000   1.0000   1.0000   1.0000
     1.0000   1.0000   1.0000   1.0000   1.0000   1.0000   1.0000   1.0000
     1.0000   1.0000   1.0000   1.0000   1.0000   1.0000   1.0000   1.0423
     1.0246   1.0103   0.9905   0.8664   0.8340   0.7193   0.6071   0.5876
     0.4001   0.3705   0.3476   0.0000   0.0000

          k = 0.4041-0.0000 0.0000 ( 19598 PWs)   bands (ev):

   -97.3609 -60.7885 -60.7885 -60.7885 -17.2405 -16.6375 -16.6352 -16.6352
   -16.4803 -16.4760 -15.3705 -15.2305 -15.2303  -6.7827  -6.0999  -6.0897
    -6.0897  -6.0487  -6.0228  -5.8688  -5.8688  -5.8371  -4.8916  -4.8916
    -4.8818  -4.6891  -4.6891  -4.6670  -4.4829  -4.4829  -4.4641  -3.4185
    -3.4185  -3.3925  -3.3787  -3.3011  -3.2987  -3.2987  -3.2566  -3.2566
    -3.1810  -3.1612  -3.1612  -1.5835  -1.5638

     occupation numbers 
     1.0000   1.0000   1.0000   1.0000   1.0000   1.0000   1.0000   1.0000
     1.0000   1.0000   1.0000   1.0000   1.0000   1.0000   1.0000   1.0000
     1.0000   1.0000   1.0000   1.0000   1.0000   1.0000   1.0000   1.0000
     1.0000   1.0000   1.0000   1.0000   1.0000   1.0000   1.0000   1.0121
     1.0121   0.9748   0.9518   0.7831   0.7770   0.7770   0.6653   0.6653
     0.4582   0.4068   0.4068   0.0000   0.0000

          k = 0.5051 0.1010-0.1010 ( 19588 PWs)   bands (ev):

   -97.3609 -60.7885 -60.7885 -60.7885 -17.2389 -16.6385 -16.6351 -16.6350
   -16.4818 -16.4762 -15.3696 -15.2307 -15.2306  -6.7796  -6.0941  -6.0827
    -6.0811  -6.0466  -6.0289  -5.8584  -5.8561  -5.8351  -4.8991  -4.8989
    -4.8827  -4.6980  -4.6922  -4.6903  -4.4884  -4.4872  -4.4669  -3.4036
    -3.3980  -3.3756  -3.3459  -3.3271  -3.2970  -3.2746  -3.2706  -3.2694
    -3.2147  -3.1808  -3.1751  -1.5752  -1.5745

     occupation numbers 
     1.0000   1.0000   1.0000   1.0000   1.0000   1.0000   1.0000   1.0000
     1.0000   1.0000   1.0000   1.0000   1.0000   1.0000   1.0000   1.0000
     1.0000   1.0000   1.0000   1.0000   1.0000   1.0000   1.0000   1.0000
     1.0000   1.0000   1.0000   1.0000   1.0000   1.0000   1.0000   0.9919
     0.9835   0.9463   0.8879   0.8460   0.7727   0.7140   0.7033   0.6999
     0.5494   0.4575   0.4425   0.0000   0.0000

          k =-0.1010-0.5051 0.5051 ( 19623 PWs)   bands (ev):

   -97.3609 -60.7885 -60.7885 -60.7885 -17.2381 -16.6395 -16.6357 -16.6344
   -16.4815 -16.4769 -15.3691 -15.2309 -15.2307  -6.7813  -6.0890  -6.0818
    -6.0774  -6.0418  -6.0415  -5.8472  -5.8417  -5.8406  -4.9017  -4.8966
    -4.8843  -4.7171  -4.6897  -4.6785  -4.4898  -4.4855  -4.4734  -3.4153
    -3.4019  -3.3637  -3.3356  -3.3220  -3.2995  -3.2928  -3.2675  -3.2581
    -3.2276  -3.2034  -3.1785  -1.5805  -1.5572

     occupation numbers 
     1.0000   1.0000   1.0000   1.0000   1.0000   1.0000   1.0000   1.0000
     1.0000   1.0000   1.0000   1.0000   1.0000   1.0000   1.0000   1.0000
     1.0000   1.0000   1.0000   1.0000   1.0000   1.0000   1.0000   1.0000
     1.0000   1.0000   1.0000   1.0000   1.0000   1.0000   1.0000   1.0079
     0.9893   0.9241   0.8653   0.8342   0.7790   0.7618   0.6949   0.6692
     0.5851   0.5183   0.4515   0.0000   0.0000

          k = 0.0000-0.4041 0.4041 ( 19591 PWs)   bands (ev):

   -97.3609 -60.7885 -60.7885 -60.7885 -17.2386 -16.6403 -16.6359 -16.6339
   -16.4797 -16.4774 -15.3694 -15.2307 -15.2306  -6.7863  -6.0882  -6.0873
    -6.0816  -6.0520  -6.0369  -5.8541  -5.8417  -5.8339  -4.9012  -4.8887
    -4.8830  -4.7144  -4.6759  -4.6609  -4.4862  -4.4796  -4.4787  -3.4372
    -3.4144  -3.3707  -3.3705  -3.3436  -3.2831  -3.2782  -3.2618  -3.2482
    -3.2193  -3.2043  -3.1672  -1.5772  -1.5430

     occupation numbers 
     1.0000   1.0000   1.0000   1.0000   1.0000   1.0000   1.0000   1.0000
     1.0000   1.0000   1.0000   1.0000   1.0000   1.0000   1.0000   1.0000
     1.0000   1.0000   1.0000   1.0000   1.0000   1.0000   1.0000   1.0000
     1.0000   1.0000   1.0000   1.0000   1.0000   1.0000   1.0000   1.0336
     1.0067   0.9373   0.9371   0.8830   0.7365   0.7236   0.6793   0.6421
     0.5619   0.5208   0.4221   0.0000   0.0000

          k = 0.6061-0.0000 0.0000 ( 19622 PWs)   bands (ev):

   -97.3609 -60.7885 -60.7885 -60.7885 -17.2382 -16.6371 -16.6354 -16.6354
   -16.4842 -16.4759 -15.3692 -15.2309 -15.2307  -6.7717  -6.0929  -6.0758
    -6.0758  -6.0413  -6.0226  -5.8587  -5.8587  -5.8360  -4.9061  -4.9061
    -4.8859  -4.7246  -4.7015  -4.7015  -4.4923  -4.4923  -4.4643  -3.3715
    -3.3715  -3.3497  -3.3156  -3.3138  -3.3096  -3.3096  -3.2584  -3.2584
    -3.2427  -3.1899  -3.1899  -1.5957  -1.5833

     occupation numbers 
     1.0000   1.0000   1.0000   1.0000   1.0000   1.0000   1.0000   1.0000
     1.0000   1.0000   1.0000   1.0000   1.0000   1.0000   1.0000   1.0000
     1.0000   1.0000   1.0000   1.0000   1.0000   1.0000   1.0000   1.0000
     1.0000   1.0000   1.0000   1.0000   1.0000   1.0000   1.0000   0.9389
     0.9389   0.8959   0.8188   0.8146   0.8043   0.8043   0.6700   0.6700
     0.6269   0.4819   0.4819   0.0000   0.0000

          k =-0.0000-0.6061 0.6061 ( 19628 PWs)   bands (ev):

   -97.3609 -60.7885 -60.7885 -60.7885 -17.2378 -16.6368 -16.6364 -16.6351
   -16.4841 -16.4762 -15.3690 -15.2309 -15.2307  -6.7724  -6.0904  -6.0754
    -6.0742  -6.0392  -6.0291  -5.8533  -5.8512  -5.8393  -4.9060  -4.9042
    -4.8873  -4.7338  -4.7009  -4.6967  -4.4927  -4.4914  -4.4671  -3.3853
    -3.3617  -3.3347  -3.3246  -3.3236  -3.3087  -3.2867  -3.2842  -3.2536
    -3.2389  -3.2013  -3.1922  -1.5984  -1.5752

     occupation numbers 
     1.0000   1.0000   1.0000   1.0000   1.0000   1.0000   1.0000   1.0000
     1.0000   1.0000   1.0000   1.0000   1.0000   1.0000   1.0000   1.0000
     1.0000   1.0000   1.0000   1.0000   1.0000   1.0000   1.0000   1.0000
     1.0000   1.0000   1.0000   1.0000   1.0000   1.0000   1.0000   0.9631
     0.9203   0.8634   0.8402   0.8380   0.8021   0.7460   0.7395   0.6569
     0.6163   0.5125   0.4880   0.0000   0.0000

          k = 0.4041 0.2020 0.0000 ( 19575 PWs)   bands (ev):

   -97.3609 -60.7885 -60.7885 -60.7885 -17.2398 -16.6395 -16.6354 -16.6342
   -16.4796 -16.4766 -15.3702 -15.2306 -15.2304  -6.7862  -6.0960  -6.0896
    -6.0874  -6.0510  -6.0315  -5.8642  -5.8526  -5.8367  -4.8969  -4.8898
    -4.8787  -4.6975  -4.6739  -4.6631  -4.4836  -4.4824  -4.4692  -3.4329
    -3.4054  -3.4042  -3.3798  -3.3289  -3.2915  -3.2841  -3.2634  -3.2497
    -3.1964  -3.1742  -3.1587  -1.5755  -1.5527

     occupation numbers 
     1.0000   1.0000   1.0000   1.0000   1.0000   1.0000   1.0000   1.0000
     1.0000   1.0000   1.0000   1.0000   1.0000   1.0000   1.0000   1.0000
     1.0000   1.0000   1.0000   1.0000   1.0000   1.0000   1.0000   1.0000
     1.0000   1.0000   1.0000   1.0000   1.0000   1.0000   1.0000   1.0290
     0.9945   0.9926   0.9538   0.8503   0.7584   0.7391   0.6836   0.6461
     0.4993   0.4403   0.4006   0.0000   0.0000

          k =-0.2020-0.4041 0.6061 ( 19616 PWs)   bands (ev):

   -97.3609 -60.7885 -60.7885 -60.7885 -17.2384 -16.6403 -16.6353 -16.6343
   -16.4804 -16.4771 -15.3693 -15.2308 -15.2306  -6.7847  -6.0891  -6.0860
    -6.0795  -6.0485  -6.0386  -5.8514  -5.8419  -5.8362  -4.9005  -4.8952
    -4.8810  -4.7052  -4.6914  -4.6645  -4.4888  -4.4823  -4.4750  -3.4381
    -3.3959  -3.3842  -3.3453  -3.3305  -3.2968  -3.2764  -3.2721  -3.2572
    -3.2268  -3.1926  -3.1724  -1.5756  -1.5499

     occupation numbers 
     1.0000   1.0000   1.0000   1.0000   1.0000   1.0000   1.0000   1.0000
     1.0000   1.0000   1.0000   1.0000   1.0000   1.0000   1.0000   1.0000
     1.0000   1.0000   1.0000   1.0000   1.0000   1.0000   1.0000   1.0000
     1.0000   1.0000   1.0000   1.0000   1.0000   1.0000   1.0000   1.0345
     0.9802   0.9613   0.8866   0.8540   0.7722   0.7189   0.7072   0.6669
     0.5827   0.4890   0.4355   0.0000   0.0000

          k =-0.1010-0.5051 0.7071 ( 19624 PWs)   bands (ev):

   -97.3609 -60.7885 -60.7885 -60.7885 -17.2380 -16.6378 -16.6356 -16.6354
   -16.4829 -16.4765 -15.3691 -15.2309 -15.2308  -6.7763  -6.0896  -6.0791
    -6.0756  -6.0427  -6.0318  -5.8548  -5.8457  -5.8388  -4.9018  -4.9010
    -4.8872  -4.7210  -4.7091  -4.6813  -4.4924  -4.4872  -4.4697  -3.4149
    -3.3629  -3.3449  -3.3267  -3.3264  -3.3045  -3.2955  -3.2685  -3.2668
    -3.2275  -3.1961  -3.1892  -1.5928  -1.5659

     occupation numbers 
     1.0000   1.0000   1.0000   1.0000   1.0000   1.0000   1.0000   1.0000
     1.0000   1.0000   1.0000   1.0000   1.0000   1.0000   1.0000   1.0000
     1.0000   1.0000   1.0000   1.0000   1.0000   1.0000   1.0000   1.0000
     1.0000   1.0000   1.0000   1.0000   1.0000   1.0000   1.0000   1.0074
     0.9226   0.8858   0.8451   0.8444   0.7916   0.7687   0.6977   0.6928
     0.5846   0.4986   0.4800   0.0000   0.0000

          k = 0.0000-0.4041 0.6061 ( 19651 PWs)   bands (ev):

   -97.3609 -60.7885 -60.7885 -60.7885 -17.2378 -16.6381 -16.6363 -16.6351
   -16.4822 -16.4769 -15.3690 -15.2309 -15.2308  -6.7786  -6.0857  -6.0819
    -6.0749  -6.0433  -6.0366  -5.8468  -5.8461  -5.8376  -4.9008  -4.8940
    -4.8917  -4.7246  -4.7099  -4.6702  -4.4925  -4.4818  -4.4761  -3.4371
    -3.3533  -3.3456  -3.3282  -3.3279  -3.3120  -3.2835  -3.2745  -3.2718
    -3.2142  -3.2126  -3.1881  -1.5932  -1.5548

     occupation numbers 
     1.0000   1.0000   1.0000   1.0000   1.0000   1.0000   1.0000   1.0000
     1.0000   1.0000   1.0000   1.0000   1.0000   1.0000   1.0000   1.0000
     1.0000   1.0000   1.0000   1.0000   1.0000   1.0000   1.0000   1.0000
     1.0000   1.0000   1.0000   1.0000   1.0000   1.0000   1.0000   1.0335
     0.9034   0.8872   0.8487   0.8479   0.8101   0.7377   0.7136   0.7064
     0.5478   0.5436   0.4770   0.0000   0.0000

 ------ SPIN DOWN ----------


          k = 0.0000 0.0000 0.0000 ( 19603 PWs)   bands (ev):

   -99.0805 -62.4470 -62.4470 -62.4470 -15.9729 -15.9669 -15.3085 -13.6959
   -12.7887 -12.7887 -12.7887 -12.6393 -12.6393  -5.6741  -5.6741  -5.4228
    -5.4228  -5.4228  -4.3539  -4.0231  -4.0231  -4.0231  -4.0048  -4.0048
    -4.0048  -3.5370  -3.5370  -3.5370  -2.5621  -2.5621  -2.5621  -1.3444
    -1.3444  -1.3444  -0.7996  -0.7996  -0.7996  -0.7584  -0.7584  -0.7584
    -0.3127  -0.3127  -0.1545  -0.1545  -0.1545

     occupation numbers 
     1.0000   1.0000   1.0000   1.0000   1.0000   1.0000   1.0000   1.0000
     1.0000   1.0000   1.0000   1.0000   1.0000   1.0000   1.0000   1.0000
     1.0000   1.0000   1.0000   1.0007   1.0007   1.0007   1.0009   1.0009
     1.0009   1.0832   1.0832   1.0832   0.0001   0.0001   0.0001   0.0000
     0.0000   0.0000   0.0000   0.0000   0.0000   0.0000   0.0000   0.0000
     0.0000   0.0000   0.0000   0.0000   0.0000

          k = 0.1010 0.1010-0.1010 ( 19657 PWs)   bands (ev):

   -99.0805 -62.4470 -62.4470 -62.4470 -15.9725 -15.9671 -15.3084 -13.6968
   -12.7885 -12.7883 -12.7883 -12.6398 -12.6398  -5.6772  -5.6772  -5.4220
    -5.4220  -5.4213  -4.3754  -4.0204  -4.0204  -4.0192  -4.0005  -4.0005
    -3.9915  -3.5128  -3.5128  -3.4886  -2.5980  -2.5974  -2.5974  -1.3545
    -1.3425  -1.3425  -0.8332  -0.8068  -0.8068  -0.7665  -0.7665  -0.7550
    -0.2973  -0.2973  -0.1600  -0.1600  -0.1586

     occupation numbers 
     1.0000   1.0000   1.0000   1.0000   1.0000   1.0000   1.0000   1.0000
     1.0000   1.0000   1.0000   1.0000   1.0000   1.0000   1.0000   1.0000
     1.0000   1.0000   1.0000   1.0007   1.0007   1.0007   1.0010   1.0010
     1.0011   1.0799   1.0799   1.0716   0.0002   0.0002   0.0002   0.0000
     0.0000   0.0000   0.0000   0.0000   0.0000   0.0000   0.0000   0.0000
     0.0000   0.0000   0.0000   0.0000   0.0000

          k = 0.2020 0.2020-0.2020 ( 19603 PWs)   bands (ev):

   -99.0805 -62.4470 -62.4470 -62.4470 -15.9714 -15.9677 -15.3081 -13.6987
   -12.7883 -12.7873 -12.7873 -12.6409 -12.6409  -5.6841  -5.6841  -5.4203
    -5.4203  -5.4181  -4.4208  -4.0121  -4.0121  -4.0015  -3.9942  -3.9942
    -3.9662  -3.4495  -3.4495  -3.3699  -2.6965  -2.6843  -2.6843  -1.3764
    -1.3378  -1.3378  -0.9054  -0.8234  -0.8234  -0.7828  -0.7828  -0.7473
    -0.2651  -0.2651  -0.1719  -0.1719  -0.1681

     occupation numbers 
     1.0000   1.0000   1.0000   1.0000   1.0000   1.0000   1.0000   1.0000
     1.0000   1.0000   1.0000   1.0000   1.0000   1.0000   1.0000   1.0000
     1.0000   1.0000   1.0000   1.0008   1.0008   1.0010   1.0011   1.0011
     1.0017   1.0454   1.0454   0.9358   0.0016   0.0012   0.0012   0.0000
     0.0000   0.0000   0.0000   0.0000   0.0000   0.0000   0.0000   0.0000
     0.0000   0.0000   0.0000   0.0000   0.0000

          k = 0.3030 0.3030-0.3030 ( 19599 PWs)   bands (ev):

   -99.0805 -62.4470 -62.4470 -62.4470 -15.9700 -15.9687 -15.3079 -13.7003
   -12.7881 -12.7866 -12.7866 -12.6418 -12.6418  -5.6896  -5.6896  -5.4190
    -5.4190  -5.4155  -4.4547  -4.0015  -4.0015  -3.9939  -3.9939  -3.9808
    -3.9502  -3.3856  -3.3856  -3.2450  -2.8114  -2.7658  -2.7658  -1.3930
    -1.3339  -1.3339  -0.9605  -0.8377  -0.8377  -0.7939  -0.7939  -0.7409
    -0.2423  -0.2423  -0.1802  -0.1802  -0.1759

     occupation numbers 
     1.0000   1.0000   1.0000   1.0000   1.0000   1.0000   1.0000   1.0000
     1.0000   1.0000   1.0000   1.0000   1.0000   1.0000   1.0000   1.0000
     1.0000   1.0000   1.0000   1.0010   1.0010   1.0011   1.0011   1.0014
     1.0022   0.9636   0.9636   0.6332   0.0103   0.0051   0.0051   0.0000
     0.0000   0.0000   0.0000   0.0000   0.0000   0.0000   0.0000   0.0000
     0.0000   0.0000   0.0000   0.0000   0.0000

          k = 0.2020-0.0000 0.0000 ( 19599 PWs)   bands (ev):

   -99.0805 -62.4470 -62.4470 -62.4470 -15.9723 -15.9671 -15.3084 -13.6970
   -12.7889 -12.7889 -12.7872 -12.6405 -12.6391  -5.6812  -5.6740  -5.4215
    -5.4214  -5.4214  -4.3752  -4.0250  -4.0250  -4.0087  -3.9964  -3.9947
    -3.9947  -3.5366  -3.5366  -3.4240  -2.6770  -2.5685  -2.5685  -1.3643
    -1.3389  -1.3389  -0.8462  -0.8044  -0.8044  -0.7670  -0.7627  -0.7627
    -0.3122  -0.2839  -0.1648  -0.1648  -0.1551

     occupation numbers 
     1.0000   1.0000   1.0000   1.0000   1.0000   1.0000   1.0000   1.0000
     1.0000   1.0000   1.0000   1.0000   1.0000   1.0000   1.0000   1.0000
     1.0000   1.0000   1.0000   1.0006   1.0006   1.0008   1.0010   1.0011
     1.0011   1.0832   1.0832   1.0188   0.0011   0.0001   0.0001   0.0000
     0.0000   0.0000   0.0000   0.0000   0.0000   0.0000   0.0000   0.0000
     0.0000   0.0000   0.0000   0.0000   0.0000

          k = 0.3030 0.1010-0.1010 ( 19585 PWs)   bands (ev):

   -99.0805 -62.4470 -62.4470 -62.4470 -15.9715 -15.9676 -15.3082 -13.6983
   -12.7889 -12.7887 -12.7866 -12.6414 -12.6395  -5.6867  -5.6771  -5.4203
    -5.4199  -5.4188  -4.4003  -4.0225  -4.0181  -3.9953  -3.9935  -3.9853
    -3.9735  -3.5116  -3.5003  -3.3369  -2.7681  -2.6096  -2.6081  -1.3833
    -1.3376  -1.3336  -0.8931  -0.8179  -0.8155  -0.7834  -0.7728  -0.7573
    -0.2966  -0.2686  -0.1771  -0.1766  -0.1603

     occupation numbers 
     1.0000   1.0000   1.0000   1.0000   1.0000   1.0000   1.0000   1.0000
     1.0000   1.0000   1.0000   1.0000   1.0000   1.0000   1.0000   1.0000
     1.0000   1.0000   1.0000   1.0007   1.0007   1.0011   1.0011   1.0013
     1.0015   1.0796   1.0763   0.8682   0.0053   0.0003   0.0003   0.0000
     0.0000   0.0000   0.0000   0.0000   0.0000   0.0000   0.0000   0.0000
     0.0000   0.0000   0.0000   0.0000   0.0000

          k = 0.4041 0.2020-0.2020 ( 19625 PWs)   bands (ev):

   -99.0805 -62.4470 -62.4470 -62.4470 -15.9703 -15.9684 -15.3080 -13.6998
   -12.7886 -12.7877 -12.7868 -12.6418 -12.6407  -5.6895  -5.6840  -5.4188
    -5.4185  -5.4160  -4.4318  -4.0144  -4.0021  -3.9934  -3.9808  -3.9778
    -3.9548  -3.4472  -3.4228  -3.3030  -2.7924  -2.7033  -2.6942  -1.3940
    -1.3432  -1.3306  -0.9359  -0.8378  -0.8317  -0.7948  -0.7875  -0.7500
    -0.2647  -0.2626  -0.1873  -0.1856  -0.1711

     occupation numbers 
     1.0000   1.0000   1.0000   1.0000   1.0000   1.0000   1.0000   1.0000
     1.0000   1.0000   1.0000   1.0000   1.0000   1.0000   1.0000   1.0000
     1.0000   1.0000   1.0000   1.0008   1.0009   1.0011   1.0014   1.0014
     1.0021   1.0434   1.0174   0.7879   0.0077   0.0018   0.0015   0.0000
     0.0000   0.0000   0.0000   0.0000   0.0000   0.0000   0.0000   0.0000
     0.0000   0.0000   0.0000   0.0000   0.0000

          k =-0.2020-0.4041 0.4041 ( 19616 PWs)   bands (ev):

   -99.0805 -62.4470 -62.4470 -62.4470 -15.9695 -15.9691 -15.3079 -13.7004
   -12.7885 -12.7873 -12.7868 -12.6418 -12.6413  -5.6895  -5.6876  -5.4183
    -5.4180  -5.4152  -4.4438  -4.0056  -4.0039  -3.9860  -3.9838  -3.9725
    -3.9509  -3.4347  -3.3843  -3.2678  -2.8096  -2.7697  -2.7064  -1.3922
    -1.3478  -1.3324  -0.9476  -0.8453  -0.8370  -0.7965  -0.7942  -0.7476
    -0.2703  -0.2418  -0.1885  -0.1848  -0.1786

     occupation numbers 
     1.0000   1.0000   1.0000   1.0000   1.0000   1.0000   1.0000   1.0000
     1.0000   1.0000   1.0000   1.0000   1.0000   1.0000   1.0000   1.0000
     1.0000   1.0000   1.0000   1.0009   1.0009   1.0012   1.0013   1.0016
     1.0022   1.0310   0.9614   0.6956   0.0100   0.0054   0.0019   0.0000
     0.0000   0.0000   0.0000   0.0000   0.0000   0.0000   0.0000   0.0000
     0.0000   0.0000   0.0000   0.0000   0.0000

          k =-0.1010-0.3030 0.3030 ( 19598 PWs)   bands (ev):

   -99.0805 -62.4470 -62.4470 -62.4470 -15.9707 -15.9681 -15.3080 -13.6995
   -12.7891 -12.7874 -12.7865 -12.6419 -12.6404  -5.6896  -5.6824  -5.4195
    -5.4187  -5.4168  -4.4283  -4.0129  -4.0007  -3.9978  -3.9927  -3.9778
    -3.9603  -3.5049  -3.3867  -3.2904  -2.7895  -2.7624  -2.6197  -1.3834
    -1.3427  -1.3375  -0.9238  -0.8311  -0.8298  -0.7949  -0.7819  -0.7515
    -0.2868  -0.2416  -0.1796  -0.1788  -0.1748

     occupation numbers 
     1.0000   1.0000   1.0000   1.0000   1.0000   1.0000   1.0000   1.0000
     1.0000   1.0000   1.0000   1.0000   1.0000   1.0000   1.0000   1.0000
     1.0000   1.0000   1.0000   1.0008   1.0010   1.0010   1.0011   1.0014
     1.0019   1.0778   0.9655   0.7556   0.0074   0.0048   0.0004   0.0000
     0.0000   0.0000   0.0000   0.0000   0.0000   0.0000   0.0000   0.0000
     0.0000   0.0000   0.0000   0.0000   0.0000

          k =-0.0000-0.2020 0.2020 ( 19617 PWs)   bands (ev):

   -99.0805 -62.4470 -62.4470 -62.4470 -15.9718 -15.9674 -15.3082 -13.6979
   -12.7891 -12.7878 -12.7872 -12.6410 -12.6397  -5.6842  -5.6778  -5.4212
    -5.4204  -5.4197  -4.3981  -4.0211  -4.0108  -4.0107  -4.0005  -3.9862
    -3.9800  -3.5357  -3.4505  -3.3969  -2.6859  -2.6798  -2.5751  -1.3686
    -1.3419  -1.3383  -0.8754  -0.8176  -0.8114  -0.7820  -0.7675  -0.7565
    -0.2992  -0.2650  -0.1703  -0.1668  -0.1637

     occupation numbers 
     1.0000   1.0000   1.0000   1.0000   1.0000   1.0000   1.0000   1.0000
     1.0000   1.0000   1.0000   1.0000   1.0000   1.0000   1.0000   1.0000
     1.0000   1.0000   1.0000   1.0007   1.0008   1.0008   1.0010   1.0012
     1.0014   1.0831   1.0463   0.9819   0.0013   0.0011   0.0001   0.0000
     0.0000   0.0000   0.0000   0.0000   0.0000   0.0000   0.0000   0.0000
     0.0000   0.0000   0.0000   0.0000   0.0000

          k = 0.4041-0.0000 0.0000 ( 19598 PWs)   bands (ev):

   -99.0805 -62.4470 -62.4470 -62.4470 -15.9711 -15.9677 -15.3081 -13.6986
   -12.7896 -12.7896 -12.7867 -12.6416 -12.6388  -5.6881  -5.6738  -5.4187
    -5.4184  -5.4184  -4.3819  -4.0271  -4.0271  -3.9821  -3.9754  -3.9742
    -3.9742  -3.5357  -3.5357  -3.3312  -2.7864  -2.5828  -2.5828  -1.4101
    -1.3278  -1.3278  -0.9098  -0.8138  -0.8138  -0.7862  -0.7697  -0.7697
    -0.3112  -0.2935  -0.1909  -0.1909  -0.1564

     occupation numbers 
     1.0000   1.0000   1.0000   1.0000   1.0000   1.0000   1.0000   1.0000
     1.0000   1.0000   1.0000   1.0000   1.0000   1.0000   1.0000   1.0000
     1.0000   1.0000   1.0000   1.0006   1.0006   1.0013   1.0015   1.0015
     1.0015   1.0831   1.0831   0.8555   0.0070   0.0002   0.0002   0.0000
     0.0000   0.0000   0.0000   0.0000   0.0000   0.0000   0.0000   0.0000
     0.0000   0.0000   0.0000   0.0000   0.0000

          k = 0.5051 0.1010-0.1010 ( 19588 PWs)   bands (ev):

   -99.0805 -62.4470 -62.4470 -62.4470 -15.9704 -15.9682 -15.3080 -13.6993
   -12.7895 -12.7893 -12.7878 -12.6412 -12.6392  -5.6873  -5.6769  -5.4176
    -5.4171  -5.4163  -4.3856  -4.0241  -4.0175  -3.9808  -3.9672  -3.9608
    -3.9589  -3.5103  -3.4996  -3.4022  -2.7256  -2.6240  -2.6211  -1.4230
    -1.3323  -1.3246  -0.9199  -0.8302  -0.8229  -0.7965  -0.7774  -0.7662
    -0.3200  -0.2958  -0.2028  -0.2020  -0.1616

     occupation numbers 
     1.0000   1.0000   1.0000   1.0000   1.0000   1.0000   1.0000   1.0000
     1.0000   1.0000   1.0000   1.0000   1.0000   1.0000   1.0000   1.0000
     1.0000   1.0000   1.0000   1.0006   1.0007   1.0014   1.0017   1.0019
     1.0019   1.0793   1.0761   0.9897   0.0026   0.0004   0.0004   0.0000
     0.0000   0.0000   0.0000   0.0000   0.0000   0.0000   0.0000   0.0000
     0.0000   0.0000   0.0000   0.0000   0.0000

          k =-0.1010-0.5051 0.5051 ( 19623 PWs)   bands (ev):

   -99.0805 -62.4470 -62.4470 -62.4470 -15.9695 -15.9689 -15.3079 -13.7000
   -12.7893 -12.7886 -12.7881 -12.6407 -12.6405  -5.6850  -5.6839  -5.4169
    -5.4167  -5.4152  -4.4051  -4.0161  -4.0030  -3.9771  -3.9703  -3.9597
    -3.9524  -3.5007  -3.4455  -3.3818  -2.7228  -2.7019  -2.6442  -1.4079
    -1.3543  -1.3268  -0.9057  -0.8612  -0.8315  -0.7965  -0.7901  -0.7624
    -0.3302  -0.2640  -0.2041  -0.2012  -0.1720

     occupation numbers 
     1.0000   1.0000   1.0000   1.0000   1.0000   1.0000   1.0000   1.0000
     1.0000   1.0000   1.0000   1.0000   1.0000   1.0000   1.0000   1.0000
     1.0000   1.0000   1.0000   1.0007   1.0009   1.0014   1.0016   1.0019
     1.0021   1.0764   1.0418   0.9572   0.0025   0.0017   0.0006   0.0000
     0.0000   0.0000   0.0000   0.0000   0.0000   0.0000   0.0000   0.0000
     0.0000   0.0000   0.0000   0.0000   0.0000

          k = 0.0000-0.4041 0.4041 ( 19591 PWs)   bands (ev):

   -99.0805 -62.4470 -62.4470 -62.4470 -15.9698 -15.9687 -15.3079 -13.7000
   -12.7897 -12.7878 -12.7868 -12.6417 -12.6403  -5.6895  -5.6828  -5.4180
    -5.4169  -5.4157  -4.4218  -4.0074  -4.0044  -3.9825  -3.9804  -3.9630
    -3.9584  -3.5318  -3.3837  -3.2845  -2.8077  -2.7712  -2.6036  -1.3768
    -1.3726  -1.3327  -0.9144  -0.8531  -0.8330  -0.7990  -0.7869  -0.7597
    -0.3163  -0.2410  -0.1939  -0.1891  -0.1792

     occupation numbers 
     1.0000   1.0000   1.0000   1.0000   1.0000   1.0000   1.0000   1.0000
     1.0000   1.0000   1.0000   1.0000   1.0000   1.0000   1.0000   1.0000
     1.0000   1.0000   1.0000   1.0009   1.0009   1.0013   1.0014   1.0018
     1.0019   1.0828   0.9605   0.7402   0.0098   0.0055   0.0003   0.0000
     0.0000   0.0000   0.0000   0.0000   0.0000   0.0000   0.0000   0.0000
     0.0000   0.0000   0.0000   0.0000   0.0000

          k = 0.6061-0.0000 0.0000 ( 19622 PWs)   bands (ev):

   -99.0805 -62.4470 -62.4470 -62.4470 -15.9702 -15.9682 -15.3079 -13.6991
   -12.7901 -12.7901 -12.7890 -12.6406 -12.6385  -5.6848  -5.6736  -5.4165
    -5.4160  -5.4160  -4.3495  -4.0282  -4.0282  -3.9676  -3.9581  -3.9581
    -3.9477  -3.5353  -3.5353  -3.4934  -2.6559  -2.5940  -2.5940  -1.4478
    -1.3203  -1.3203  -0.9203  -0.8199  -0.8199  -0.8013  -0.7724  -0.7724
    -0.3736  -0.3104  -0.2152  -0.2152  -0.1574

     occupation numbers 
     1.0000   1.0000   1.0000   1.0000   1.0000   1.0000   1.0000   1.0000
     1.0000   1.0000   1.0000   1.0000   1.0000   1.0000   1.0000   1.0000
     1.0000   1.0000   1.0000   1.0006   1.0006   1.0017   1.0020   1.0020
     1.0023   1.0831   1.0831   1.0737   0.0007   0.0002   0.0002   0.0000
     0.0000   0.0000   0.0000   0.0000   0.0000   0.0000   0.0000   0.0000
     0.0000   0.0000   0.0000   0.0000   0.0000

          k =-0.0000-0.6061 0.6061 ( 19628 PWs)   bands (ev):

   -99.0805 -62.4470 -62.4470 -62.4470 -15.9699 -15.9684 -15.3079 -13.6994
   -12.7897 -12.7896 -12.7895 -12.6404 -12.6391  -5.6837  -5.6768  -5.4161
    -5.4159  -5.4154  -4.3608  -4.0248  -4.0176  -3.9658  -3.9592  -3.9588
    -3.9449  -3.5296  -3.5098  -3.4923  -2.6320  -2.6268  -2.6248  -1.4412
    -1.3310  -1.3214  -0.9068  -0.8387  -0.8245  -0.8014  -0.7782  -0.7706
    -0.3783  -0.2954  -0.2158  -0.2148  -0.1622

     occupation numbers 
     1.0000   1.0000   1.0000   1.0000   1.0000   1.0000   1.0000   1.0000
     1.0000   1.0000   1.0000   1.0000   1.0000   1.0000   1.0000   1.0000
     1.0000   1.0000   1.0000   1.0006   1.0007   1.0017   1.0019   1.0019
     1.0024   1.0827   1.0791   1.0732   0.0005   0.0004   0.0004   0.0000
     0.0000   0.0000   0.0000   0.0000   0.0000   0.0000   0.0000   0.0000
     0.0000   0.0000   0.0000   0.0000   0.0000

          k = 0.4041 0.2020 0.0000 ( 19575 PWs)   bands (ev):

   -99.0805 -62.4470 -62.4470 -62.4470 -15.9707 -15.9680 -15.3080 -13.6993
   -12.7896 -12.7882 -12.7868 -12.6417 -12.6397  -5.6891  -5.6788  -5.4190
    -5.4180  -5.4171  -4.4081  -4.0167  -4.0134  -3.9945  -3.9776  -3.9690
    -3.9655  -3.5343  -3.4347  -3.3190  -2.7895  -2.6946  -2.5894  -1.3978
    -1.3406  -1.3311  -0.9164  -0.8276  -0.8260  -0.7952  -0.7758  -0.7614
    -0.3047  -0.2624  -0.1913  -0.1861  -0.1661

     occupation numbers 
     1.0000   1.0000   1.0000   1.0000   1.0000   1.0000   1.0000   1.0000
     1.0000   1.0000   1.0000   1.0000   1.0000   1.0000   1.0000   1.0000
     1.0000   1.0000   1.0000   1.0007   1.0008   1.0011   1.0014   1.0016
     1.0017   1.0830   1.0310   0.8270   0.0074   0.0015   0.0002   0.0000
     0.0000   0.0000   0.0000   0.0000   0.0000   0.0000   0.0000   0.0000
     0.0000   0.0000   0.0000   0.0000   0.0000

          k =-0.2020-0.4041 0.6061 ( 19616 PWs)   bands (ev):

   -99.0805 -62.4470 -62.4470 -62.4470 -15.9697 -15.9688 -15.3079 -13.7000
   -12.7893 -12.7882 -12.7872 -12.6414 -12.6404  -5.6881  -5.6832  -5.4176
    -5.4170  -5.4154  -4.4170  -4.0102  -4.0010  -3.9928  -3.9685  -3.9633
    -3.9552  -3.5031  -3.4277  -3.3167  -2.7902  -2.7159  -2.6327  -1.3942
    -1.3620  -1.3273  -0.9179  -0.8494  -0.8355  -0.7977  -0.7884  -0.7596
    -0.3146  -0.2529  -0.2027  -0.1866  -0.1778

     occupation numbers 
     1.0000   1.0000   1.0000   1.0000   1.0000   1.0000   1.0000   1.0000
     1.0000   1.0000   1.0000   1.0000   1.0000   1.0000   1.0000   1.0000
     1.0000   1.0000   1.0000   1.0008   1.0010   1.0011   1.0017   1.0018
     1.0020   1.0772   1.0232   0.8216   0.0075   0.0022   0.0005   0.0000
     0.0000   0.0000   0.0000   0.0000   0.0000   0.0000   0.0000   0.0000
     0.0000   0.0000   0.0000   0.0000   0.0000

          k =-0.1010-0.5051 0.7071 ( 19624 PWs)   bands (ev):

   -99.0805 -62.4470 -62.4470 -62.4470 -15.9698 -15.9685 -15.3079 -13.6996
   -12.7900 -12.7892 -12.7884 -12.6407 -12.6395  -5.6852  -5.6786  -5.4166
    -5.4160  -5.4156  -4.3794  -4.0156  -4.0150  -3.9781  -3.9627  -3.9556
    -3.9499  -3.5336  -3.4983  -3.4141  -2.7091  -2.6500  -2.6006  -1.4254
    -1.3455  -1.3207  -0.9051  -0.8375  -0.8361  -0.7991  -0.7794  -0.7709
    -0.3600  -0.2802  -0.2153  -0.2026  -0.1670

     occupation numbers 
     1.0000   1.0000   1.0000   1.0000   1.0000   1.0000   1.0000   1.0000
     1.0000   1.0000   1.0000   1.0000   1.0000   1.0000   1.0000   1.0000
     1.0000   1.0000   1.0000   1.0007   1.0008   1.0014   1.0018   1.0020
     1.0022   1.0830   1.0756   1.0063   0.0019   0.0007   0.0002   0.0000
     0.0000   0.0000   0.0000   0.0000   0.0000   0.0000   0.0000   0.0000
     0.0000   0.0000   0.0000   0.0000   0.0000

          k = 0.0000-0.4041 0.6061 ( 19651 PWs)   bands (ev):

   -99.0805 -62.4470 -62.4470 -62.4470 -15.9693 -15.9691 -15.3079 -13.6999
   -12.7897 -12.7894 -12.7876 -12.6407 -12.6401  -5.6850  -5.6820  -5.4164
    -5.4161  -5.4153  -4.3941  -4.0108  -4.0005  -3.9845  -3.9678  -3.9552
    -3.9495  -3.5308  -3.5006  -3.3320  -2.7906  -2.6392  -2.6146  -1.3997
    -1.3735  -1.3216  -0.8750  -0.8742  -0.8396  -0.7930  -0.7902  -0.7692
    -0.3590  -0.2600  -0.2155  -0.1917  -0.1782

     occupation numbers 
     1.0000   1.0000   1.0000   1.0000   1.0000   1.0000   1.0000   1.0000
     1.0000   1.0000   1.0000   1.0000   1.0000   1.0000   1.0000   1.0000
     1.0000   1.0000   1.0000   1.0008   1.0010   1.0013   1.0017   1.0020
     1.0022   1.0828   1.0764   0.8573   0.0075   0.0005   0.0003   0.0000
     0.0000   0.0000   0.0000   0.0000   0.0000   0.0000   0.0000   0.0000
     0.0000   0.0000   0.0000   0.0000   0.0000

     the Fermi energy is    -3.1587 ev

!    total energy              =    -516.27672278 Ry
     estimated scf accuracy    <          1.8E-09 Ry
     smearing contrib. (-TS)   =      -0.00811120 Ry
     internal energy E=F+TS    =    -516.26861157 Ry

     The total energy is F=E-TS. E is the sum of the following terms:
     one-electron contribution =    -536.61392137 Ry
     hartree contribution      =     280.01533628 Ry
     xc contribution           =     -89.44648399 Ry
     ewald contribution        =    -170.22354249 Ry

     total magnetization       =    12.01 Bohr mag/cell
     absolute magnetization    =    17.68 Bohr mag/cell

     convergence has been achieved in  16 iterations

     negative rho (up, down):  2.220E-02 2.329E-02

     Forces acting on atoms (cartesian axes, Ry/au):

     atom    1 type  2   force =    -0.00000000    0.00000000    0.00000000
     atom    2 type  3   force =    -0.00000000    0.00000000    0.06117521
     atom    3 type  3   force =     0.00000000   -0.06117521   -0.00000000
     atom    4 type  3   force =    -0.06117521   -0.00000000    0.00000000
     atom    5 type  3   force =    -0.00000000    0.00000000   -0.06117521
     atom    6 type  3   force =     0.00000000    0.06117521   -0.00000000
     atom    7 type  3   force =     0.06117521    0.00000000   -0.00000000
     atom    8 type  1   force =     0.00000000   -0.00000000    0.00000000
     atom    9 type  1   force =    -0.00000000    0.00000000   -0.00000000
     atom   10 type  1   force =     0.00000000   -0.00000000    0.00000000
     The non-local contrib.  to forces
     atom    1 type  2   force =    -0.00000000    0.00000000   -0.00000000
     atom    2 type  3   force =    -0.00000000    0.00000000    0.47404113
     atom    3 type  3   force =    -0.00000000   -0.47404113    0.00000000
     atom    4 type  3   force =    -0.47404113   -0.00000000    0.00000000
     atom    5 type  3   force =     0.00000000   -0.00000000   -0.47404113
     atom    6 type  3   force =     0.00000000    0.47404113   -0.00000000
     atom    7 type  3   force =     0.47404113   -0.00000000    0.00000000
     atom    8 type  1   force =     0.00000000    0.00000000    0.00000000
     atom    9 type  1   force =     0.00000000    0.00000000   -0.00000000
     atom   10 type  1   force =    -0.00000000   -0.00000000    0.00000000
     The ionic contribution  to forces
     atom    1 type  2   force =    -0.00000000    0.00000000   -0.00000000
     atom    2 type  3   force =    -0.00000000    0.00000000  -10.79278489
     atom    3 type  3   force =    -0.00000000   10.79278489   -0.00000000
     atom    4 type  3   force =    10.79278489    0.00000000   -0.00000000
     atom    5 type  3   force =    -0.00000000   -0.00000000   10.79278489
     atom    6 type  3   force =     0.00000000  -10.79278489    0.00000000
     atom    7 type  3   force =   -10.79278489    0.00000000    0.00000000
     atom    8 type  1   force =     0.00000000    0.00000000   -0.00000000
     atom    9 type  1   force =     0.00000000    0.00000000    0.00000000
     atom   10 type  1   force =    -0.00000000    0.00000000    0.00000000
     The local contribution  to forces
     atom    1 type  2   force =     0.00000000    0.00000000    0.00000000
     atom    2 type  3   force =     0.00000000    0.00000000   10.38332116
     atom    3 type  3   force =    -0.00000000  -10.38332116   -0.00000000
     atom    4 type  3   force =   -10.38332116   -0.00000000    0.00000000
     atom    5 type  3   force =    -0.00000000   -0.00000000  -10.38332116
     atom    6 type  3   force =    -0.00000000   10.38332116    0.00000000
     atom    7 type  3   force =    10.38332116   -0.00000000   -0.00000000
     atom    8 type  1   force =    -0.00000000    0.00000000    0.00000000
     atom    9 type  1   force =    -0.00000000   -0.00000000   -0.00000000
     atom   10 type  1   force =    -0.00000000   -0.00000000   -0.00000000
     The core correction contribution to forces
     atom    1 type  2   force =     0.00000000    0.00000000   -0.00000000
     atom    2 type  3   force =    -0.00000000    0.00000000   -0.00341963
     atom    3 type  3   force =     0.00000000    0.00341963   -0.00000000
     atom    4 type  3   force =     0.00341963   -0.00000000   -0.00000000
     atom    5 type  3   force =    -0.00000000   -0.00000000    0.00341963
     atom    6 type  3   force =    -0.00000000   -0.00341963   -0.00000000
     atom    7 type  3   force =    -0.00341963    0.00000000    0.00000000
     atom    8 type  1   force =     0.00000000   -0.00000000    0.00000000
     atom    9 type  1   force =    -0.00000000   -0.00000000   -0.00000000
     atom   10 type  1   force =     0.00000000    0.00000000   -0.00000000
     The Hubbard contrib.    to forces
     atom    1 type  2   force =     0.00000000    0.00000000    0.00000000
     atom    2 type  3   force =     0.00000000    0.00000000    0.00000000
     atom    3 type  3   force =     0.00000000    0.00000000    0.00000000
     atom    4 type  3   force =     0.00000000    0.00000000    0.00000000
     atom    5 type  3   force =     0.00000000    0.00000000    0.00000000
     atom    6 type  3   force =     0.00000000    0.00000000    0.00000000
     atom    7 type  3   force =     0.00000000    0.00000000    0.00000000
     atom    8 type  1   force =     0.00000000    0.00000000    0.00000000
     atom    9 type  1   force =     0.00000000    0.00000000    0.00000000
     atom   10 type  1   force =     0.00000000    0.00000000    0.00000000
     The SCF correction term to forces
     atom    1 type  2   force =     0.00000000    0.00000000    0.00000000
     atom    2 type  3   force =    -0.00000000   -0.00000000    0.00001743
     atom    3 type  3   force =     0.00000000   -0.00001743    0.00000000
     atom    4 type  3   force =    -0.00001743    0.00000000    0.00000000
     atom    5 type  3   force =    -0.00000000    0.00000000   -0.00001743
     atom    6 type  3   force =    -0.00000000    0.00001743   -0.00000000
     atom    7 type  3   force =     0.00001743   -0.00000000   -0.00000000
     atom    8 type  1   force =     0.00000000    0.00000000   -0.00000000
     atom    9 type  1   force =    -0.00000000    0.00000000    0.00000000
     atom   10 type  1   force =     0.00000000   -0.00000000   -0.00000000

     Total force =     0.149848     Total SCF correction =     0.000043


     Computing stress (Cartesian axis) and pressure


     negative rho (up, down):  2.220E-02 2.329E-02
          total   stress  (Ry/bohr**3)                   (kbar)     P=      -43.26
  -0.00029409  -0.00000000  -0.00000000          -43.26       -0.00       -0.00
  -0.00000000  -0.00029409  -0.00000000           -0.00      -43.26       -0.00
  -0.00000000  -0.00000000  -0.00029409           -0.00       -0.00      -43.26

     kinetic stress (kbar)   5389.88     -0.00     -0.00
                               -0.00   5389.88     -0.00
                               -0.00     -0.00   5389.88

     local   stress (kbar)  -9291.45     -0.00      0.00
                               -0.00  -9291.45      0.00
                                0.00      0.00  -9291.45

     nonloc. stress (kbar)   3232.12     -0.00      0.00
                               -0.00   3232.12      0.00
                                0.00      0.00   3232.12

     hartree stress (kbar)   5493.35     -0.00      0.00
                               -0.00   5493.35      0.00
                                0.00      0.00   5493.35

     exc-cor stress (kbar)   -605.16      0.00     -0.00
                                0.00   -605.16     -0.00
                               -0.00     -0.00   -605.16

     corecor stress (kbar)   -922.56     -0.00     -0.00
                               -0.00   -922.56     -0.00
                               -0.00     -0.00   -922.56

     ewald   stress (kbar)  -3339.45     -0.00      0.00
                               -0.00  -3339.45     -0.00
                                0.00     -0.00  -3339.45

     hubbard stress (kbar)      0.00      0.00      0.00
                                0.00      0.00      0.00
                                0.00      0.00      0.00

     DFT-D   stress (kbar)      0.00      0.00      0.00
                                0.00      0.00      0.00
                                0.00      0.00      0.00

     XDM     stress (kbar)      0.00      0.00      0.00
                                0.00      0.00      0.00
                                0.00      0.00      0.00

     dft-nl  stress (kbar)      0.00      0.00      0.00
                                0.00      0.00      0.00
                                0.00      0.00      0.00

     TS-vdW  stress (kbar)      0.00      0.00      0.00
                                0.00      0.00      0.00
                                0.00      0.00      0.00

     MDB     stress (kbar)      0.00      0.00      0.00
                                0.00      0.00      0.00
                                0.00      0.00      0.00

     3D-RISM stress (kbar)      0.00      0.00      0.00
                                0.00      0.00      0.00
                                0.00      0.00      0.00


     Writing all to output data dir ./out/aiida.save/ :
     XML data file, charge density, pseudopotentials, collected wavefunctions

     init_run     :      1.92s CPU      2.22s WALL (       1 calls)
     electrons    :     57.58s CPU     59.57s WALL (       1 calls)
     forces       :      0.72s CPU      0.76s WALL (       1 calls)
     stress       :      3.06s CPU      3.12s WALL (       1 calls)

     Called by init_run:
     wfcinit      :      0.62s CPU      0.74s WALL (       1 calls)
     wfcinit:atom :      0.01s CPU      0.01s WALL (       6 calls)
     wfcinit:wfcr :      0.55s CPU      0.67s WALL (       6 calls)
     potinit      :      0.46s CPU      0.59s WALL (       1 calls)
     hinit0       :      0.64s CPU      0.65s WALL (       1 calls)

     Called by electrons:
     c_bands      :     44.00s CPU     45.49s WALL (      16 calls)
     sum_band     :      6.85s CPU      7.12s WALL (      16 calls)
     v_of_rho     :      4.32s CPU      4.47s WALL (      17 calls)
     v_h          :      0.18s CPU      0.19s WALL (      17 calls)
     v_xc         :      4.64s CPU      4.81s WALL (      19 calls)
     newd         :      1.58s CPU      1.61s WALL (      17 calls)
     mix_rho      :      0.48s CPU      0.50s WALL (      16 calls)

     Called by c_bands:
     init_us_2    :      0.62s CPU      0.64s WALL (     210 calls)
     init_us_2:cp :      0.62s CPU      0.64s WALL (     210 calls)
     ppcg_k       :     32.00s CPU     33.11s WALL (      96 calls)
     wfcrot       :      7.89s CPU      8.33s WALL (      96 calls)

     Called by sum_band:
     sum_band:wei :      0.02s CPU      0.02s WALL (      16 calls)
     sum_band:loo :      4.16s CPU      4.34s WALL (      16 calls)
     sum_band:buf :      0.11s CPU      0.11s WALL (      96 calls)
     sum_band:ini :      0.27s CPU      0.27s WALL (      96 calls)
     sum_band:cal :      0.46s CPU      0.46s WALL (      96 calls)
     sum_band:bec :      0.00s CPU      0.00s WALL (      96 calls)
     addusdens    :      2.12s CPU      2.14s WALL (      16 calls)
                                        0.00s GPU  (      16 calls)
     addusd:skk   :      0.01s CPU      0.01s WALL (      48 calls)
                                        0.00s GPU  (      48 calls)

     Called by ppcg_*:
     ppcg:zgemm   :      6.14s CPU      6.23s WALL (   15107 calls)
     ppcg:hpsi    :     21.23s CPU     22.22s WALL (     313 calls)
     ppcg:cholQR  :      0.61s CPU      0.61s WALL (     217 calls)
     ppcg:RR      :      1.65s CPU      1.67s WALL (      94 calls)
     ppcg:ZTRSM   :      0.42s CPU      0.42s WALL (     434 calls)
     ppcg:lock    :      0.06s CPU      0.06s WALL (     190 calls)
     h_psi        :     26.23s CPU     27.58s WALL (     409 calls)
     s_psi        :      1.60s CPU      1.60s WALL (     409 calls)

     Called by h_psi:
     h_psi:calbec :      2.02s CPU      2.05s WALL (     409 calls)
     vloc_psi     :     22.32s CPU     23.62s WALL (     409 calls)
     add_vuspsi   :      1.55s CPU      1.56s WALL (     409 calls)

     General routines
     calbec       :      2.64s CPU      2.67s WALL (     535 calls)
     fft          :      2.17s CPU      2.35s WALL (     463 calls)
     ffts         :      0.24s CPU      0.25s WALL (      66 calls)
     fftw         :     20.87s CPU     22.20s WALL (   37458 calls)
     interpolate  :      0.40s CPU      0.41s WALL (      34 calls)

     Parallel routines

     PWSCF        :   1m 3.58s CPU   1m 6.91s WALL


   This run was terminated on:   4:26:48  30Nov2023            

=------------------------------------------------------------------------------=
   JOB DONE.
=------------------------------------------------------------------------------=
