
     Program PWSCF v.7.2 starts on 22Oct2023 at 17: 9:28 

     This program is part of the open-source Quantum ESPRESSO suite
     for quantum simulation of materials; please cite
         "P. Giannozzi et al., J. Phys.:Condens. Matter 21 395502 (2009);
         "P. Giannozzi et al., J. Phys.:Condens. Matter 29 465901 (2017);
         "P. Giannozzi et al., J. Chem. Phys. 152 154105 (2020);
          URL http://www.quantum-espresso.org", 
     in publications or presentations arising from this work. More details at
     http://www.quantum-espresso.org/quote

     Parallel version (MPI & OpenMP), running on      12 processor cores
     Number of MPI processes:                 1
     Threads/MPI process:                    12

     MPI processes distributed on     1 nodes
     59570 MiB available memory on the printing compute node when the environment starts
 
     Reading input from aiida.in

     Current dimensions of program PWSCF are:
     Max number of different atomic species (ntypx) = 10
     Max number of k-points (npk) =  40000
     Max angular momentum in pseudopotentials (lmaxx) =  4
     file K.pbesol-spn-kjpaw_psl.1.0.0.UPF: wavefunction(s)  3S renormalized
     Message from routine setup:
     using ibrav=0 with symmetry is DISCOURAGED, use correct ibrav instead
 
     Subspace diagonalization in iterative solution of the eigenvalue problem:
     a serial algorithm will be used

 
     G-vector sticks info
     --------------------
     sticks:   dense  smooth     PW     G-vecs:    dense   smooth      PW
     Sum       11705    5861   1569              1158013   409489   57191
 
     Using Slab Decomposition
 


     bravais-lattice index     =            0
     lattice parameter (alat)  =      24.1129  a.u.
     unit-cell volume          =    6521.3944 (a.u.)^3
     number of atoms/cell      =            8
     number of atomic types    =            2
     number of electrons       =       104.00
     number of Kohn-Sham states=           62
     kinetic-energy cutoff     =      60.0000  Ry
     charge density cutoff     =     480.0000  Ry
     scf convergence threshold =      1.6E-09
     mixing beta               =       0.4000
     number of iterations used =            8  plain     mixing
     Exchange-correlation= SLA  PW   PSX  PSC
                           (   1   4  10   8   0   0   0)

     GPU acceleration is ACTIVE.


     GPU used by master process:

        Device Number: 0
        Device name: Tesla P100-PCIE-16GB
        Compute capability : 60
        Ratio of single to double precision performance  : 2
        Memory Clock Rate (KHz): 715000
        Memory Bus Width (bits): 4096
        Peak Memory Bandwidth (GB/s): 732.16

     celldm(1)=  24.112905  celldm(2)=   0.000000  celldm(3)=   0.000000
     celldm(4)=   0.000000  celldm(5)=   0.000000  celldm(6)=   0.000000

     crystal axes: (cart. coord. in units of alat)
               a(1) = (   1.000000   0.000000   0.000000 )  
               a(2) = (   0.000000   0.526646   0.000000 )  
               a(3) = (   0.000000   0.000000   0.883229 )  

     reciprocal axes: (cart. coord. in units 2 pi/alat)
               b(1) = (  1.000000  0.000000  0.000000 )  
               b(2) = (  0.000000  1.898810  0.000000 )  
               b(3) = (  0.000000  0.000000  1.132209 )  


     PseudoPot. # 1 for Co read from file:
     ./pseudo/co_pbesol_v1.2.uspp.F.UPF
     MD5 check sum: 3b4cd4e7cc7df4da9fdede0fd33e2193
     Pseudo is Ultrasoft + core correction, Zval = 17.0
     Generated by new atomic code, or converted to UPF format
     Using radial grid of  863 points,  6 beta functions with: 
                l(1) =   0
                l(2) =   0
                l(3) =   1
                l(4) =   1
                l(5) =   2
                l(6) =   2
     Q(r) pseudized with  8 coefficients,  rinner =    1.200   1.200   1.200
                                                       1.200   1.200

     PseudoPot. # 2 for K  read from file:
     ./pseudo/K.pbesol-spn-kjpaw_psl.1.0.0.UPF
     MD5 check sum: b302bede38c4f5fe00638ceae66f121b
     Pseudo is Projector augmented-wave + core cor, Zval =  9.0
     Generated using "atomic" code by A. Dal Corso  v.6.0 svn rev. 13079
     Shape of augmentation charge: PSQ
     Using radial grid of 1165 points,  6 beta functions with: 
                l(1) =   0
                l(2) =   0
                l(3) =   1
                l(4) =   1
                l(5) =   2
                l(6) =   2
     Q(r) pseudized with 0 coefficients 


     atomic species   valence    mass     pseudopotential
        Co            17.00    58.93319     Co( 1.00)
        K              9.00    39.09830     K ( 1.00)

     Starting magnetic structure 
     atomic species   magnetization
        Co           0.294
        K            0.100

      8 Sym. Ops., with inversion, found ( 6 have fractional translation)


                                    s                        frac. trans.

      isym =  1     identity                                     

 cryst.   s( 1) = (     1          0          0      )
                  (     0          1          0      )
                  (     0          0          1      )

 cart.    s( 1) = (  1.0000000  0.0000000  0.0000000 )
                  (  0.0000000  1.0000000  0.0000000 )
                  (  0.0000000  0.0000000  1.0000000 )


      isym =  2     180 deg rotation - cart. axis [0,0,1]        

 cryst.   s( 2) = (    -1          0          0      )    f =(  0.5000000 )
                  (     0         -1          0      )       (  0.0000000 )
                  (     0          0          1      )       ( -0.5000000 )

 cart.    s( 2) = ( -1.0000000  0.0000000  0.0000000 )    f =(  0.5000000 )
                  (  0.0000000 -1.0000000  0.0000000 )       (  0.0000000 )
                  (  0.0000000  0.0000000  1.0000000 )       ( -0.4416144 )


      isym =  3     180 deg rotation - cart. axis [0,1,0]        

 cryst.   s( 3) = (    -1          0          0      )    f =(  0.0000000 )
                  (     0          1          0      )       ( -0.5000000 )
                  (     0          0         -1      )       (  0.0000000 )

 cart.    s( 3) = ( -1.0000000  0.0000000  0.0000000 )    f =(  0.0000000 )
                  (  0.0000000  1.0000000  0.0000000 )       ( -0.2633229 )
                  (  0.0000000  0.0000000 -1.0000000 )       (  0.0000000 )


      isym =  4     180 deg rotation - cart. axis [1,0,0]        

 cryst.   s( 4) = (     1          0          0      )    f =(  0.5000000 )
                  (     0         -1          0      )       (  0.5000000 )
                  (     0          0         -1      )       (  0.5000000 )

 cart.    s( 4) = (  1.0000000  0.0000000  0.0000000 )    f =(  0.5000000 )
                  (  0.0000000 -1.0000000  0.0000000 )       (  0.2633229 )
                  (  0.0000000  0.0000000 -1.0000000 )       (  0.4416144 )


      isym =  5     inversion                                    

 cryst.   s( 5) = (    -1          0          0      )
                  (     0         -1          0      )
                  (     0          0         -1      )

 cart.    s( 5) = ( -1.0000000  0.0000000  0.0000000 )
                  (  0.0000000 -1.0000000  0.0000000 )
                  (  0.0000000  0.0000000 -1.0000000 )


      isym =  6     inv. 180 deg rotation - cart. axis [0,0,1]   

 cryst.   s( 6) = (     1          0          0      )    f =(  0.5000000 )
                  (     0          1          0      )       (  0.0000000 )
                  (     0          0         -1      )       (  0.5000000 )

 cart.    s( 6) = (  1.0000000  0.0000000  0.0000000 )    f =(  0.5000000 )
                  (  0.0000000  1.0000000  0.0000000 )       (  0.0000000 )
                  (  0.0000000  0.0000000 -1.0000000 )       (  0.4416144 )


      isym =  7     inv. 180 deg rotation - cart. axis [0,1,0]   

 cryst.   s( 7) = (     1          0          0      )    f =(  0.0000000 )
                  (     0         -1          0      )       (  0.5000000 )
                  (     0          0          1      )       (  0.0000000 )

 cart.    s( 7) = (  1.0000000  0.0000000  0.0000000 )    f =(  0.0000000 )
                  (  0.0000000 -1.0000000  0.0000000 )       (  0.2633229 )
                  (  0.0000000  0.0000000  1.0000000 )       (  0.0000000 )


      isym =  8     inv. 180 deg rotation - cart. axis [1,0,0]   

 cryst.   s( 8) = (    -1          0          0      )    f =(  0.5000000 )
                  (     0          1          0      )       ( -0.5000000 )
                  (     0          0          1      )       ( -0.5000000 )

 cart.    s( 8) = ( -1.0000000  0.0000000  0.0000000 )    f =(  0.5000000 )
                  (  0.0000000  1.0000000  0.0000000 )       ( -0.2633229 )
                  (  0.0000000  0.0000000  1.0000000 )       ( -0.4416144 )


   Cartesian axes

     site n.     atom                  positions (alat units)
         1           K   tau(   1) = (   0.5210000   0.1316614   0.1289514  )
         2           K   tau(   2) = (   0.4790000   0.3949843   0.7542774  )
         3           K   tau(   3) = (   0.9790000   0.3949843   0.5705658  )
         4           K   tau(   4) = (   0.0210000   0.1316614   0.3126630  )
         5           Co  tau(   5) = (   0.6870000   0.1316614   0.5202218  )
         6           Co  tau(   6) = (   0.3130000   0.3949843   0.3630071  )
         7           Co  tau(   7) = (   0.8130000   0.3949843   0.0786074  )
         8           Co  tau(   8) = (   0.1870000   0.1316614   0.8046215  )

   Crystallographic axes

     site n.     atom                  positions (cryst. coord.)
         1           K   tau(   1) = (  0.5210000  0.2500000  0.1460000  )
         2           K   tau(   2) = (  0.4790000  0.7500000  0.8540000  )
         3           K   tau(   3) = (  0.9790000  0.7500000  0.6460000  )
         4           K   tau(   4) = (  0.0210000  0.2500000  0.3540000  )
         5           Co  tau(   5) = (  0.6870000  0.2500000  0.5890000  )
         6           Co  tau(   6) = (  0.3130000  0.7500000  0.4110000  )
         7           Co  tau(   7) = (  0.8130000  0.7500000  0.0890000  )
         8           Co  tau(   8) = (  0.1870000  0.2500000  0.9110000  )

     number of k points=    36  Marzari-Vanderbilt smearing, width (Ry)=  0.0100
                       cart. coord. in units 2pi/alat
        k(    1) = (   0.0000000   0.0000000   0.0000000), wk =   0.0089286
        k(    2) = (   0.0000000   0.0000000   0.2830524), wk =   0.0178571
        k(    3) = (   0.0000000   0.0000000  -0.5661047), wk =   0.0089286
        k(    4) = (   0.0000000   0.2712585   0.0000000), wk =   0.0178571
        k(    5) = (   0.0000000   0.2712585   0.2830524), wk =   0.0357143
        k(    6) = (   0.0000000   0.2712585  -0.5661047), wk =   0.0178571
        k(    7) = (   0.0000000   0.5425170   0.0000000), wk =   0.0178571
        k(    8) = (   0.0000000   0.5425170   0.2830524), wk =   0.0357143
        k(    9) = (   0.0000000   0.5425170  -0.5661047), wk =   0.0178571
        k(   10) = (   0.0000000   0.8137755   0.0000000), wk =   0.0178571
        k(   11) = (   0.0000000   0.8137755   0.2830524), wk =   0.0357143
        k(   12) = (   0.0000000   0.8137755  -0.5661047), wk =   0.0178571
        k(   13) = (   0.2500000   0.0000000   0.0000000), wk =   0.0178571
        k(   14) = (   0.2500000   0.0000000   0.2830524), wk =   0.0357143
        k(   15) = (   0.2500000   0.0000000  -0.5661047), wk =   0.0178571
        k(   16) = (   0.2500000   0.2712585   0.0000000), wk =   0.0357143
        k(   17) = (   0.2500000   0.2712585   0.2830524), wk =   0.0714286
        k(   18) = (   0.2500000   0.2712585  -0.5661047), wk =   0.0357143
        k(   19) = (   0.2500000   0.5425170   0.0000000), wk =   0.0357143
        k(   20) = (   0.2500000   0.5425170   0.2830524), wk =   0.0714286
        k(   21) = (   0.2500000   0.5425170  -0.5661047), wk =   0.0357143
        k(   22) = (   0.2500000   0.8137755   0.0000000), wk =   0.0357143
        k(   23) = (   0.2500000   0.8137755   0.2830524), wk =   0.0714286
        k(   24) = (   0.2500000   0.8137755  -0.5661047), wk =   0.0357143
        k(   25) = (  -0.5000000   0.0000000   0.0000000), wk =   0.0089286
        k(   26) = (  -0.5000000   0.0000000   0.2830524), wk =   0.0178571
        k(   27) = (  -0.5000000   0.0000000  -0.5661047), wk =   0.0089286
        k(   28) = (  -0.5000000   0.2712585   0.0000000), wk =   0.0178571
        k(   29) = (  -0.5000000   0.2712585   0.2830524), wk =   0.0357143
        k(   30) = (  -0.5000000   0.2712585  -0.5661047), wk =   0.0178571
        k(   31) = (  -0.5000000   0.5425170   0.0000000), wk =   0.0178571
        k(   32) = (  -0.5000000   0.5425170   0.2830524), wk =   0.0357143
        k(   33) = (  -0.5000000   0.5425170  -0.5661047), wk =   0.0178571
        k(   34) = (  -0.5000000   0.8137755   0.0000000), wk =   0.0178571
        k(   35) = (  -0.5000000   0.8137755   0.2830524), wk =   0.0357143
        k(   36) = (  -0.5000000   0.8137755  -0.5661047), wk =   0.0178571

                       cryst. coord.
        k(    1) = (   0.0000000   0.0000000   0.0000000), wk =   0.0089286
        k(    2) = (   0.0000000   0.0000000   0.2500000), wk =   0.0178571
        k(    3) = (   0.0000000   0.0000000  -0.5000000), wk =   0.0089286
        k(    4) = (   0.0000000   0.1428571   0.0000000), wk =   0.0178571
        k(    5) = (   0.0000000   0.1428571   0.2500000), wk =   0.0357143
        k(    6) = (   0.0000000   0.1428571  -0.5000000), wk =   0.0178571
        k(    7) = (   0.0000000   0.2857143   0.0000000), wk =   0.0178571
        k(    8) = (   0.0000000   0.2857143   0.2500000), wk =   0.0357143
        k(    9) = (   0.0000000   0.2857143  -0.5000000), wk =   0.0178571
        k(   10) = (   0.0000000   0.4285714   0.0000000), wk =   0.0178571
        k(   11) = (   0.0000000   0.4285714   0.2500000), wk =   0.0357143
        k(   12) = (   0.0000000   0.4285714  -0.5000000), wk =   0.0178571
        k(   13) = (   0.2500000   0.0000000   0.0000000), wk =   0.0178571
        k(   14) = (   0.2500000   0.0000000   0.2500000), wk =   0.0357143
        k(   15) = (   0.2500000   0.0000000  -0.5000000), wk =   0.0178571
        k(   16) = (   0.2500000   0.1428571   0.0000000), wk =   0.0357143
        k(   17) = (   0.2500000   0.1428571   0.2500000), wk =   0.0714286
        k(   18) = (   0.2500000   0.1428571  -0.5000000), wk =   0.0357143
        k(   19) = (   0.2500000   0.2857143   0.0000000), wk =   0.0357143
        k(   20) = (   0.2500000   0.2857143   0.2500000), wk =   0.0714286
        k(   21) = (   0.2500000   0.2857143  -0.5000000), wk =   0.0357143
        k(   22) = (   0.2500000   0.4285714   0.0000000), wk =   0.0357143
        k(   23) = (   0.2500000   0.4285714   0.2500000), wk =   0.0714286
        k(   24) = (   0.2500000   0.4285714  -0.5000000), wk =   0.0357143
        k(   25) = (  -0.5000000   0.0000000   0.0000000), wk =   0.0089286
        k(   26) = (  -0.5000000   0.0000000   0.2500000), wk =   0.0178571
        k(   27) = (  -0.5000000   0.0000000  -0.5000000), wk =   0.0089286
        k(   28) = (  -0.5000000   0.1428571   0.0000000), wk =   0.0178571
        k(   29) = (  -0.5000000   0.1428571   0.2500000), wk =   0.0357143
        k(   30) = (  -0.5000000   0.1428571  -0.5000000), wk =   0.0178571
        k(   31) = (  -0.5000000   0.2857143   0.0000000), wk =   0.0178571
        k(   32) = (  -0.5000000   0.2857143   0.2500000), wk =   0.0357143
        k(   33) = (  -0.5000000   0.2857143  -0.5000000), wk =   0.0178571
        k(   34) = (  -0.5000000   0.4285714   0.0000000), wk =   0.0178571
        k(   35) = (  -0.5000000   0.4285714   0.2500000), wk =   0.0357143
        k(   36) = (  -0.5000000   0.4285714  -0.5000000), wk =   0.0178571

     Dense  grid:  1158013 G-vectors     FFT dimensions: ( 180,  90, 150)

     Smooth grid:   409489 G-vectors     FFT dimensions: ( 120,  64, 108)

     Dynamical RAM for                 wfc:      48.42 MB

     Dynamical RAM for     wfc (w. buffer):    3534.69 MB

     Dynamical RAM for           str. fact:      35.34 MB

     Dynamical RAM for           local pot:       0.00 MB

     Dynamical RAM for          nlocal pot:     112.46 MB

     Dynamical RAM for                qrad:       3.52 MB

     Dynamical RAM for          rho,v,vnew:     217.26 MB

     Dynamical RAM for               rhoin:      72.42 MB

     Dynamical RAM for            rho*nmix:     565.44 MB

     Dynamical RAM for           G-vectors:      69.39 MB

     Dynamical RAM for          h,s,v(r/c):       0.70 MB

     Dynamical RAM for          <psi|beta>:       0.14 MB

     Dynamical RAM for                 psi:      96.84 MB

     Dynamical RAM for                hpsi:      96.84 MB

     Dynamical RAM for                spsi:      96.84 MB

     Dynamical RAM for      wfcinit/wfcrot:     131.37 MB

     Dynamical RAM for           addusdens:    3374.95 MB

     Dynamical RAM for          addusforce:    3481.00 MB

     Dynamical RAM for         addusstress:    3578.15 MB

     Estimated static dynamical RAM per process >       4.11 GB

     Estimated max dynamical RAM per process >       8.16 GB

     Check: negative core charge=   -0.000003
     Generating pointlists ...
     new r_m :   0.1622 (alat units)  3.9114 (a.u.) for type    1
     new r_m :   0.1530 (alat units)  3.6899 (a.u.) for type    2

     Initial potential from superposition of free atoms

     starting charge      99.9256, renormalised to     104.0000
     Starting wfcs are   84 randomized atomic wfcs
     Checking if some PAW data can be deallocated... 

     total cpu time spent up to now is       22.0 secs

     per-process dynamical memory:   665.2 Mb

     Self-consistent Calculation
[tb_dev] Currently allocated     1.33E+01 Mbytes, locked:    0 /   8
[tb_pin] Currently allocated     0.00E+00 Mbytes, locked:    0 /   0

     iteration #  1     ecut=    60.00 Ry     beta= 0.40
     Davidson diagonalization with overlap

---- Real-time Memory Report at c_bands before calling an iterative solver
          5246 MiB given to the printing process from OS
           732 MiB allocation reported by mallinfo(arena+hblkhd)
         53283 MiB available memory on the node where the printing process lives
     GPU memory used/free/total (MiB): 3230 / 13050 / 16280
------------------
     ethr =  1.00E-02,  avg # of iterations =  3.7

     total cpu time spent up to now is       40.2 secs

     total energy              =   -1624.05323503 Ry
     estimated scf accuracy    <      29.68096761 Ry

     total magnetization       =    20.00 Bohr mag/cell
     absolute magnetization    =    20.96 Bohr mag/cell
[tb_dev] Currently allocated     1.33E+01 Mbytes, locked:    0 /   6
[tb_pin] Currently allocated     0.00E+00 Mbytes, locked:    0 /   0

     iteration #  2     ecut=    60.00 Ry     beta= 0.40
     Davidson diagonalization with overlap

---- Real-time Memory Report at c_bands before calling an iterative solver
          5755 MiB given to the printing process from OS
          1008 MiB allocation reported by mallinfo(arena+hblkhd)
         53016 MiB available memory on the node where the printing process lives
     GPU memory used/free/total (MiB): 7888 / 8392 / 16280
------------------
     ethr =  1.00E-02,  avg # of iterations =  4.1

     total cpu time spent up to now is       60.1 secs

     total energy              =   -1636.83256776 Ry
     estimated scf accuracy    <      33.04982123 Ry

     total magnetization       =     8.00 Bohr mag/cell
     absolute magnetization    =     8.11 Bohr mag/cell
[tb_dev] Currently allocated     1.33E+01 Mbytes, locked:    0 /   6
[tb_pin] Currently allocated     0.00E+00 Mbytes, locked:    0 /   0

     iteration #  3     ecut=    60.00 Ry     beta= 0.40
     Davidson diagonalization with overlap

---- Real-time Memory Report at c_bands before calling an iterative solver
          5885 MiB given to the printing process from OS
          1072 MiB allocation reported by mallinfo(arena+hblkhd)
         52972 MiB available memory on the node where the printing process lives
     GPU memory used/free/total (MiB): 7888 / 8392 / 16280
------------------
     ethr =  1.00E-02,  avg # of iterations =  2.2

     total cpu time spent up to now is       75.9 secs

     total energy              =   -1637.21305835 Ry
     estimated scf accuracy    <      10.31526601 Ry

     total magnetization       =     8.00 Bohr mag/cell
     absolute magnetization    =     8.10 Bohr mag/cell
[tb_dev] Currently allocated     1.33E+01 Mbytes, locked:    0 /   6
[tb_pin] Currently allocated     0.00E+00 Mbytes, locked:    0 /   0

     iteration #  4     ecut=    60.00 Ry     beta= 0.40
     Davidson diagonalization with overlap

---- Real-time Memory Report at c_bands before calling an iterative solver
          6014 MiB given to the printing process from OS
          1117 MiB allocation reported by mallinfo(arena+hblkhd)
         52928 MiB available memory on the node where the printing process lives
     GPU memory used/free/total (MiB): 7888 / 8392 / 16280
------------------
     ethr =  9.92E-03,  avg # of iterations =  1.1

     total cpu time spent up to now is       89.9 secs

     WARNING: integrated charge=   104.01763108, expected=   104.00000000

     total energy              =   -1637.71665399 Ry
     estimated scf accuracy    <       6.74000702 Ry

     total magnetization       =     8.00 Bohr mag/cell
     absolute magnetization    =     8.08 Bohr mag/cell
[tb_dev] Currently allocated     1.33E+01 Mbytes, locked:    0 /   6
[tb_pin] Currently allocated     0.00E+00 Mbytes, locked:    0 /   0

     iteration #  5     ecut=    60.00 Ry     beta= 0.40
     Davidson diagonalization with overlap

---- Real-time Memory Report at c_bands before calling an iterative solver
          6139 MiB given to the printing process from OS
          1162 MiB allocation reported by mallinfo(arena+hblkhd)
         52884 MiB available memory on the node where the printing process lives
     GPU memory used/free/total (MiB): 7888 / 8392 / 16280
------------------
     ethr =  6.48E-03,  avg # of iterations =  3.8

     total cpu time spent up to now is      107.7 secs

     WARNING: integrated charge=   104.00345386, expected=   104.00000000

     total energy              =   -1632.64304617 Ry
     estimated scf accuracy    <       9.45041656 Ry

     total magnetization       =     6.74 Bohr mag/cell
     absolute magnetization    =     7.03 Bohr mag/cell
[tb_dev] Currently allocated     1.33E+01 Mbytes, locked:    0 /   6
[tb_pin] Currently allocated     0.00E+00 Mbytes, locked:    0 /   0

     iteration #  6     ecut=    60.00 Ry     beta= 0.40
     Davidson diagonalization with overlap

---- Real-time Memory Report at c_bands before calling an iterative solver
          6210 MiB given to the printing process from OS
          1195 MiB allocation reported by mallinfo(arena+hblkhd)
         52852 MiB available memory on the node where the printing process lives
     GPU memory used/free/total (MiB): 7888 / 8392 / 16280
------------------
     ethr =  6.48E-03,  avg # of iterations =  9.7

     total cpu time spent up to now is      134.3 secs

     WARNING: integrated charge=   104.01109885, expected=   104.00000000

     total energy              =   -1655.20467815 Ry
     estimated scf accuracy    <     193.49088126 Ry

     total magnetization       =     2.75 Bohr mag/cell
     absolute magnetization    =     2.78 Bohr mag/cell
[tb_dev] Currently allocated     1.33E+01 Mbytes, locked:    0 /   6
[tb_pin] Currently allocated     0.00E+00 Mbytes, locked:    0 /   0

     iteration #  7     ecut=    60.00 Ry     beta= 0.40
     Davidson diagonalization with overlap

---- Real-time Memory Report at c_bands before calling an iterative solver
          6256 MiB given to the printing process from OS
          1240 MiB allocation reported by mallinfo(arena+hblkhd)
         52810 MiB available memory on the node where the printing process lives
     GPU memory used/free/total (MiB): 7888 / 8392 / 16280
------------------
     ethr =  6.48E-03,  avg # of iterations =  3.4

     total cpu time spent up to now is      150.5 secs

     WARNING: integrated charge=   104.01127900, expected=   104.00000000

     total energy              =   -1654.79117126 Ry
     estimated scf accuracy    <     208.72608082 Ry

     total magnetization       =     1.01 Bohr mag/cell
     absolute magnetization    =     2.91 Bohr mag/cell
[tb_dev] Currently allocated     1.33E+01 Mbytes, locked:    0 /   6
[tb_pin] Currently allocated     0.00E+00 Mbytes, locked:    0 /   0

     iteration #  8     ecut=    60.00 Ry     beta= 0.40
     Davidson diagonalization with overlap

---- Real-time Memory Report at c_bands before calling an iterative solver
          6277 MiB given to the printing process from OS
          1242 MiB allocation reported by mallinfo(arena+hblkhd)
         52789 MiB available memory on the node where the printing process lives
     GPU memory used/free/total (MiB): 7888 / 8392 / 16280
------------------
     ethr =  6.48E-03,  avg # of iterations =  1.1

     total cpu time spent up to now is      164.8 secs

     WARNING: integrated charge=   104.01104221, expected=   104.00000000

     total energy              =   -1654.44228126 Ry
     estimated scf accuracy    <     208.12505209 Ry

     total magnetization       =     1.21 Bohr mag/cell
     absolute magnetization    =     2.75 Bohr mag/cell
[tb_dev] Currently allocated     1.33E+01 Mbytes, locked:    0 /   6
[tb_pin] Currently allocated     0.00E+00 Mbytes, locked:    0 /   0

     iteration #  9     ecut=    60.00 Ry     beta= 0.40
     Davidson diagonalization with overlap

---- Real-time Memory Report at c_bands before calling an iterative solver
          6334 MiB given to the printing process from OS
          1319 MiB allocation reported by mallinfo(arena+hblkhd)
         52732 MiB available memory on the node where the printing process lives
     GPU memory used/free/total (MiB): 7888 / 8392 / 16280
------------------
     ethr =  6.48E-03,  avg # of iterations =  1.0

     negative rho (up, down):  1.511E-07 0.000E+00

     total cpu time spent up to now is      178.9 secs

     WARNING: integrated charge=   104.01012969, expected=   104.00000000

     total energy              =   -1651.08044584 Ry
     estimated scf accuracy    <     208.23506736 Ry

     total magnetization       =     1.30 Bohr mag/cell
     absolute magnetization    =     2.66 Bohr mag/cell
[tb_dev] Currently allocated     1.33E+01 Mbytes, locked:    0 /   6
[tb_pin] Currently allocated     0.00E+00 Mbytes, locked:    0 /   0

     iteration # 10     ecut=    60.00 Ry     beta= 0.40
     Davidson diagonalization with overlap

---- Real-time Memory Report at c_bands before calling an iterative solver
          6354 MiB given to the printing process from OS
          1321 MiB allocation reported by mallinfo(arena+hblkhd)
         52678 MiB available memory on the node where the printing process lives
     GPU memory used/free/total (MiB): 7888 / 8392 / 16280
------------------
     ethr =  6.48E-03,  avg # of iterations =  1.0

     total cpu time spent up to now is      193.0 secs

     WARNING: integrated charge=   104.00871943, expected=   104.00000000

     total energy              =   -1656.09363503 Ry
     estimated scf accuracy    <     201.28887538 Ry

     total magnetization       =     1.87 Bohr mag/cell
     absolute magnetization    =     2.55 Bohr mag/cell
[tb_dev] Currently allocated     1.33E+01 Mbytes, locked:    0 /   6
[tb_pin] Currently allocated     0.00E+00 Mbytes, locked:    0 /   0

     iteration # 11     ecut=    60.00 Ry     beta= 0.40
     Davidson diagonalization with overlap

---- Real-time Memory Report at c_bands before calling an iterative solver
          6362 MiB given to the printing process from OS
          1328 MiB allocation reported by mallinfo(arena+hblkhd)
         52686 MiB available memory on the node where the printing process lives
     GPU memory used/free/total (MiB): 7888 / 8392 / 16280
------------------
     ethr =  6.48E-03,  avg # of iterations =  1.0

     total cpu time spent up to now is      207.1 secs

     WARNING: integrated charge=   104.00935805, expected=   104.00000000

     total energy              =   -1650.07263965 Ry
     estimated scf accuracy    <     212.26788867 Ry

     total magnetization       =     1.30 Bohr mag/cell
     absolute magnetization    =     2.34 Bohr mag/cell
[tb_dev] Currently allocated     1.33E+01 Mbytes, locked:    0 /   6
[tb_pin] Currently allocated     0.00E+00 Mbytes, locked:    0 /   0

     iteration # 12     ecut=    60.00 Ry     beta= 0.40
     Davidson diagonalization with overlap

---- Real-time Memory Report at c_bands before calling an iterative solver
          6395 MiB given to the printing process from OS
          1336 MiB allocation reported by mallinfo(arena+hblkhd)
         52686 MiB available memory on the node where the printing process lives
     GPU memory used/free/total (MiB): 7888 / 8392 / 16280
------------------
     ethr =  6.48E-03,  avg # of iterations =  1.0

     negative rho (up, down):  0.000E+00 3.003E-03

     total cpu time spent up to now is      221.3 secs

     WARNING: integrated charge=   104.00175866, expected=   104.00000000

     total energy              =   -1622.97364719 Ry
     estimated scf accuracy    <     201.47320353 Ry

     total magnetization       =     1.53 Bohr mag/cell
     absolute magnetization    =     2.15 Bohr mag/cell
[tb_dev] Currently allocated     1.33E+01 Mbytes, locked:    0 /   6
[tb_pin] Currently allocated     0.00E+00 Mbytes, locked:    0 /   0

     iteration # 13     ecut=    60.00 Ry     beta= 0.40
     Davidson diagonalization with overlap

---- Real-time Memory Report at c_bands before calling an iterative solver
          6395 MiB given to the printing process from OS
          1344 MiB allocation reported by mallinfo(arena+hblkhd)
         52679 MiB available memory on the node where the printing process lives
     GPU memory used/free/total (MiB): 7888 / 8392 / 16280
------------------
     ethr =  6.48E-03,  avg # of iterations =  9.9

     negative rho (up, down):  0.000E+00 1.609E-04

     total cpu time spent up to now is      247.5 secs

     WARNING: integrated charge=   104.00104116, expected=   104.00000000

     total energy              =   -1635.97859796 Ry
     estimated scf accuracy    <       4.11159948 Ry

     total magnetization       =     4.20 Bohr mag/cell
     absolute magnetization    =     4.24 Bohr mag/cell
[tb_dev] Currently allocated     1.33E+01 Mbytes, locked:    0 /   6
[tb_pin] Currently allocated     0.00E+00 Mbytes, locked:    0 /   0

     iteration # 14     ecut=    60.00 Ry     beta= 0.40
     Davidson diagonalization with overlap

---- Real-time Memory Report at c_bands before calling an iterative solver
          6395 MiB given to the printing process from OS
          1352 MiB allocation reported by mallinfo(arena+hblkhd)
         52670 MiB available memory on the node where the printing process lives
     GPU memory used/free/total (MiB): 7888 / 8392 / 16280
------------------
     ethr =  3.95E-03,  avg # of iterations =  2.0

     negative rho (up, down):  6.513E-04 0.000E+00

     total cpu time spent up to now is      263.1 secs

     WARNING: integrated charge=   104.00189504, expected=   104.00000000

     total energy              =   -1636.82308833 Ry
     estimated scf accuracy    <       9.72246458 Ry

     total magnetization       =    11.23 Bohr mag/cell
     absolute magnetization    =    11.83 Bohr mag/cell
[tb_dev] Currently allocated     1.33E+01 Mbytes, locked:    0 /   6
[tb_pin] Currently allocated     0.00E+00 Mbytes, locked:    0 /   0

     iteration # 15     ecut=    60.00 Ry     beta= 0.40
     Davidson diagonalization with overlap

---- Real-time Memory Report at c_bands before calling an iterative solver
          6395 MiB given to the printing process from OS
          1360 MiB allocation reported by mallinfo(arena+hblkhd)
         52665 MiB available memory on the node where the printing process lives
     GPU memory used/free/total (MiB): 7888 / 8392 / 16280
------------------
     ethr =  3.95E-03,  avg # of iterations =  1.2

     negative rho (up, down):  1.099E-03 7.681E-07

     total cpu time spent up to now is      277.4 secs

     WARNING: integrated charge=   104.00152085, expected=   104.00000000

     total energy              =   -1636.96907263 Ry
     estimated scf accuracy    <       4.72352331 Ry

     total magnetization       =     9.44 Bohr mag/cell
     absolute magnetization    =     9.98 Bohr mag/cell
[tb_dev] Currently allocated     1.33E+01 Mbytes, locked:    0 /   6
[tb_pin] Currently allocated     0.00E+00 Mbytes, locked:    0 /   0

     iteration # 16     ecut=    60.00 Ry     beta= 0.40
     Davidson diagonalization with overlap

---- Real-time Memory Report at c_bands before calling an iterative solver
          6414 MiB given to the printing process from OS
          1368 MiB allocation reported by mallinfo(arena+hblkhd)
         52658 MiB available memory on the node where the printing process lives
     GPU memory used/free/total (MiB): 7888 / 8392 / 16280
------------------
     ethr =  3.95E-03,  avg # of iterations =  1.0

     negative rho (up, down):  1.897E-03 7.779E-04

     total cpu time spent up to now is      291.5 secs

     WARNING: integrated charge=   104.00146107, expected=   104.00000000

     total energy              =   -1637.11927162 Ry
     estimated scf accuracy    <       6.30078323 Ry

     total magnetization       =     9.75 Bohr mag/cell
     absolute magnetization    =    10.44 Bohr mag/cell
[tb_dev] Currently allocated     1.33E+01 Mbytes, locked:    0 /   6
[tb_pin] Currently allocated     0.00E+00 Mbytes, locked:    0 /   0

     iteration # 17     ecut=    60.00 Ry     beta= 0.40
     Davidson diagonalization with overlap

---- Real-time Memory Report at c_bands before calling an iterative solver
          6414 MiB given to the printing process from OS
          1375 MiB allocation reported by mallinfo(arena+hblkhd)
         52649 MiB available memory on the node where the printing process lives
     GPU memory used/free/total (MiB): 7888 / 8392 / 16280
------------------
     ethr =  3.95E-03,  avg # of iterations =  1.0

     negative rho (up, down):  1.746E-03 1.314E-02

     total cpu time spent up to now is      305.7 secs

     WARNING: integrated charge=   104.00057974, expected=   104.00000000

     total energy              =   -1636.98454065 Ry
     estimated scf accuracy    <      10.29193679 Ry

     total magnetization       =    11.33 Bohr mag/cell
     absolute magnetization    =    12.21 Bohr mag/cell
[tb_dev] Currently allocated     1.33E+01 Mbytes, locked:    0 /   6
[tb_pin] Currently allocated     0.00E+00 Mbytes, locked:    0 /   0

     iteration # 18     ecut=    60.00 Ry     beta= 0.40
     Davidson diagonalization with overlap

---- Real-time Memory Report at c_bands before calling an iterative solver
          6442 MiB given to the printing process from OS
          1383 MiB allocation reported by mallinfo(arena+hblkhd)
         52644 MiB available memory on the node where the printing process lives
     GPU memory used/free/total (MiB): 7888 / 8392 / 16280
------------------
     ethr =  3.95E-03,  avg # of iterations =  1.4

     negative rho (up, down):  8.145E-03 3.161E-02

     total cpu time spent up to now is      320.0 secs

     WARNING: integrated charge=   104.00021251, expected=   104.00000000

     total energy              =   -1635.94577337 Ry
     estimated scf accuracy    <       9.33294182 Ry

     total magnetization       =    12.23 Bohr mag/cell
     absolute magnetization    =    12.89 Bohr mag/cell
[tb_dev] Currently allocated     1.33E+01 Mbytes, locked:    0 /   6
[tb_pin] Currently allocated     0.00E+00 Mbytes, locked:    0 /   0

     iteration # 19     ecut=    60.00 Ry     beta= 0.40
     Davidson diagonalization with overlap

---- Real-time Memory Report at c_bands before calling an iterative solver
          6442 MiB given to the printing process from OS
          1391 MiB allocation reported by mallinfo(arena+hblkhd)
         52636 MiB available memory on the node where the printing process lives
     GPU memory used/free/total (MiB): 7888 / 8392 / 16280
------------------
     ethr =  3.95E-03,  avg # of iterations =  2.7

     negative rho (up, down):  1.308E-02 4.033E-02

     total cpu time spent up to now is      335.3 secs

     WARNING: integrated charge=   104.00007226, expected=   104.00000000

     total energy              =   -1636.80176286 Ry
     estimated scf accuracy    <       0.48705066 Ry

     total magnetization       =     6.16 Bohr mag/cell
     absolute magnetization    =     7.37 Bohr mag/cell
[tb_dev] Currently allocated     1.33E+01 Mbytes, locked:    0 /   6
[tb_pin] Currently allocated     0.00E+00 Mbytes, locked:    0 /   0

     iteration # 20     ecut=    60.00 Ry     beta= 0.40
     Davidson diagonalization with overlap

---- Real-time Memory Report at c_bands before calling an iterative solver
          6442 MiB given to the printing process from OS
          1399 MiB allocation reported by mallinfo(arena+hblkhd)
         52626 MiB available memory on the node where the printing process lives
     GPU memory used/free/total (MiB): 7888 / 8392 / 16280
------------------
     ethr =  4.68E-04,  avg # of iterations =  5.4

     negative rho (up, down):  9.732E-03 3.545E-02

     total cpu time spent up to now is      353.8 secs

     WARNING: integrated charge=   104.00011606, expected=   104.00000000

     total energy              =   -1636.99240400 Ry
     estimated scf accuracy    <       0.67507558 Ry

     total magnetization       =     7.14 Bohr mag/cell
     absolute magnetization    =     8.34 Bohr mag/cell
[tb_dev] Currently allocated     1.33E+01 Mbytes, locked:    0 /   6
[tb_pin] Currently allocated     0.00E+00 Mbytes, locked:    0 /   0

     iteration # 21     ecut=    60.00 Ry     beta= 0.40
     Davidson diagonalization with overlap

---- Real-time Memory Report at c_bands before calling an iterative solver
          6442 MiB given to the printing process from OS
          1407 MiB allocation reported by mallinfo(arena+hblkhd)
         52621 MiB available memory on the node where the printing process lives
     GPU memory used/free/total (MiB): 7888 / 8392 / 16280
------------------
     ethr =  4.68E-04,  avg # of iterations =  2.6

     negative rho (up, down):  7.146E-04 1.124E-02

     total cpu time spent up to now is      369.1 secs

     WARNING: integrated charge=   104.00027281, expected=   104.00000000

     total energy              =   -1637.04027347 Ry
     estimated scf accuracy    <       2.08838640 Ry

     total magnetization       =     7.39 Bohr mag/cell
     absolute magnetization    =     7.80 Bohr mag/cell
[tb_dev] Currently allocated     1.33E+01 Mbytes, locked:    0 /   6
[tb_pin] Currently allocated     0.00E+00 Mbytes, locked:    0 /   0

     iteration # 22     ecut=    60.00 Ry     beta= 0.40
     Davidson diagonalization with overlap

---- Real-time Memory Report at c_bands before calling an iterative solver
          6448 MiB given to the printing process from OS
          1415 MiB allocation reported by mallinfo(arena+hblkhd)
         52612 MiB available memory on the node where the printing process lives
     GPU memory used/free/total (MiB): 7888 / 8392 / 16280
------------------
     ethr =  4.68E-04,  avg # of iterations =  1.5

     negative rho (up, down):  6.927E-05 3.255E-03

     total cpu time spent up to now is      383.5 secs

     WARNING: integrated charge=   104.00043873, expected=   104.00000000

     total energy              =   -1636.96459576 Ry
     estimated scf accuracy    <       1.23386479 Ry

     total magnetization       =     7.43 Bohr mag/cell
     absolute magnetization    =     7.97 Bohr mag/cell
[tb_dev] Currently allocated     1.33E+01 Mbytes, locked:    0 /   6
[tb_pin] Currently allocated     0.00E+00 Mbytes, locked:    0 /   0

     iteration # 23     ecut=    60.00 Ry     beta= 0.40
     Davidson diagonalization with overlap

---- Real-time Memory Report at c_bands before calling an iterative solver
          6456 MiB given to the printing process from OS
          1422 MiB allocation reported by mallinfo(arena+hblkhd)
         52606 MiB available memory on the node where the printing process lives
     GPU memory used/free/total (MiB): 7888 / 8392 / 16280
------------------
     ethr =  4.68E-04,  avg # of iterations =  1.1

     negative rho (up, down):  1.422E-03 1.229E-02

     total cpu time spent up to now is      397.7 secs

     WARNING: integrated charge=   104.00053498, expected=   104.00000000

     total energy              =   -1636.97426973 Ry
     estimated scf accuracy    <       0.59212103 Ry

     total magnetization       =     7.50 Bohr mag/cell
     absolute magnetization    =     8.36 Bohr mag/cell
[tb_dev] Currently allocated     1.33E+01 Mbytes, locked:    0 /   6
[tb_pin] Currently allocated     0.00E+00 Mbytes, locked:    0 /   0

     iteration # 24     ecut=    60.00 Ry     beta= 0.40
     Davidson diagonalization with overlap

---- Real-time Memory Report at c_bands before calling an iterative solver
          6464 MiB given to the printing process from OS
          1430 MiB allocation reported by mallinfo(arena+hblkhd)
         52599 MiB available memory on the node where the printing process lives
     GPU memory used/free/total (MiB): 7888 / 8392 / 16280
------------------
     ethr =  4.68E-04,  avg # of iterations =  1.0

     negative rho (up, down):  3.495E-03 1.858E-02

     total cpu time spent up to now is      411.8 secs

     WARNING: integrated charge=   104.00032187, expected=   104.00000000

     total energy              =   -1636.97616887 Ry
     estimated scf accuracy    <       0.52329917 Ry

     total magnetization       =     7.50 Bohr mag/cell
     absolute magnetization    =     8.41 Bohr mag/cell
[tb_dev] Currently allocated     1.33E+01 Mbytes, locked:    0 /   6
[tb_pin] Currently allocated     0.00E+00 Mbytes, locked:    0 /   0

     iteration # 25     ecut=    60.00 Ry     beta= 0.40
     Davidson diagonalization with overlap

---- Real-time Memory Report at c_bands before calling an iterative solver
          6485 MiB given to the printing process from OS
          1438 MiB allocation reported by mallinfo(arena+hblkhd)
         52589 MiB available memory on the node where the printing process lives
     GPU memory used/free/total (MiB): 7888 / 8392 / 16280
------------------
     ethr =  4.68E-04,  avg # of iterations =  1.2

     negative rho (up, down):  0.000E+00 2.188E-04

     total cpu time spent up to now is      426.1 secs

     WARNING: integrated charge=   104.00048095, expected=   104.00000000

     total energy              =   -1636.96570349 Ry
     estimated scf accuracy    <       0.50482590 Ry

     total magnetization       =     7.54 Bohr mag/cell
     absolute magnetization    =     8.49 Bohr mag/cell
[tb_dev] Currently allocated     1.33E+01 Mbytes, locked:    0 /   6
[tb_pin] Currently allocated     0.00E+00 Mbytes, locked:    0 /   0

     iteration # 26     ecut=    60.00 Ry     beta= 0.40
     Davidson diagonalization with overlap

---- Real-time Memory Report at c_bands before calling an iterative solver
          6485 MiB given to the printing process from OS
          1446 MiB allocation reported by mallinfo(arena+hblkhd)
         52583 MiB available memory on the node where the printing process lives
     GPU memory used/free/total (MiB): 7888 / 8392 / 16280
------------------
     ethr =  4.68E-04,  avg # of iterations =  1.1

     total cpu time spent up to now is      440.3 secs

     WARNING: integrated charge=   104.00072002, expected=   104.00000000

     total energy              =   -1636.96374381 Ry
     estimated scf accuracy    <       0.40932763 Ry

     total magnetization       =     7.57 Bohr mag/cell
     absolute magnetization    =     8.52 Bohr mag/cell
[tb_dev] Currently allocated     1.33E+01 Mbytes, locked:    0 /   6
[tb_pin] Currently allocated     0.00E+00 Mbytes, locked:    0 /   0

     iteration # 27     ecut=    60.00 Ry     beta= 0.40
     Davidson diagonalization with overlap

---- Real-time Memory Report at c_bands before calling an iterative solver
          6487 MiB given to the printing process from OS
          1454 MiB allocation reported by mallinfo(arena+hblkhd)
         52575 MiB available memory on the node where the printing process lives
     GPU memory used/free/total (MiB): 7888 / 8392 / 16280
------------------
     ethr =  3.94E-04,  avg # of iterations =  2.3

     negative rho (up, down):  0.000E+00 2.207E-06

     total cpu time spent up to now is      455.4 secs

     WARNING: integrated charge=   104.00024418, expected=   104.00000000

     total energy              =   -1636.95843654 Ry
     estimated scf accuracy    <       0.37748182 Ry

     total magnetization       =     7.64 Bohr mag/cell
     absolute magnetization    =     8.52 Bohr mag/cell
[tb_dev] Currently allocated     1.33E+01 Mbytes, locked:    0 /   6
[tb_pin] Currently allocated     0.00E+00 Mbytes, locked:    0 /   0

     iteration # 28     ecut=    60.00 Ry     beta= 0.40
     Davidson diagonalization with overlap

---- Real-time Memory Report at c_bands before calling an iterative solver
          6508 MiB given to the printing process from OS
          1462 MiB allocation reported by mallinfo(arena+hblkhd)
         52564 MiB available memory on the node where the printing process lives
     GPU memory used/free/total (MiB): 7888 / 8392 / 16280
------------------
     ethr =  3.63E-04,  avg # of iterations =  2.6

     total cpu time spent up to now is      470.8 secs

     WARNING: integrated charge=   104.00042869, expected=   104.00000000

     total energy              =   -1636.96611970 Ry
     estimated scf accuracy    <       0.25805564 Ry

     total magnetization       =     7.82 Bohr mag/cell
     absolute magnetization    =     9.01 Bohr mag/cell
[tb_dev] Currently allocated     1.33E+01 Mbytes, locked:    0 /   6
[tb_pin] Currently allocated     0.00E+00 Mbytes, locked:    0 /   0

     iteration # 29     ecut=    60.00 Ry     beta= 0.40
     Davidson diagonalization with overlap

---- Real-time Memory Report at c_bands before calling an iterative solver
          6529 MiB given to the printing process from OS
          1470 MiB allocation reported by mallinfo(arena+hblkhd)
         52559 MiB available memory on the node where the printing process lives
     GPU memory used/free/total (MiB): 7888 / 8392 / 16280
------------------
     ethr =  2.48E-04,  avg # of iterations =  1.6

     total cpu time spent up to now is      485.4 secs

     WARNING: integrated charge=   104.00125009, expected=   104.00000000

     total energy              =   -1636.95106917 Ry
     estimated scf accuracy    <       0.13637608 Ry

     total magnetization       =     8.20 Bohr mag/cell
     absolute magnetization    =     9.52 Bohr mag/cell
[tb_dev] Currently allocated     1.33E+01 Mbytes, locked:    0 /   6
[tb_pin] Currently allocated     0.00E+00 Mbytes, locked:    0 /   0

     iteration # 30     ecut=    60.00 Ry     beta= 0.40
     Davidson diagonalization with overlap

---- Real-time Memory Report at c_bands before calling an iterative solver
          6529 MiB given to the printing process from OS
          1477 MiB allocation reported by mallinfo(arena+hblkhd)
         52550 MiB available memory on the node where the printing process lives
     GPU memory used/free/total (MiB): 7888 / 8392 / 16280
------------------
     ethr =  1.31E-04,  avg # of iterations =  2.6

     total cpu time spent up to now is      501.4 secs

     WARNING: integrated charge=   104.00044309, expected=   104.00000000

     total energy              =   -1636.96764166 Ry
     estimated scf accuracy    <       0.25758565 Ry

     total magnetization       =     9.77 Bohr mag/cell
     absolute magnetization    =    10.92 Bohr mag/cell
[tb_dev] Currently allocated     1.33E+01 Mbytes, locked:    0 /   6
[tb_pin] Currently allocated     0.00E+00 Mbytes, locked:    0 /   0

     iteration # 31     ecut=    60.00 Ry     beta= 0.40
     Davidson diagonalization with overlap

---- Real-time Memory Report at c_bands before calling an iterative solver
          6529 MiB given to the printing process from OS
          1485 MiB allocation reported by mallinfo(arena+hblkhd)
         52542 MiB available memory on the node where the printing process lives
     GPU memory used/free/total (MiB): 7888 / 8392 / 16280
------------------
     ethr =  1.31E-04,  avg # of iterations =  1.8

     total cpu time spent up to now is      516.2 secs

     WARNING: integrated charge=   104.00067357, expected=   104.00000000

     total energy              =   -1636.98930333 Ry
     estimated scf accuracy    <       0.10404555 Ry

     total magnetization       =     8.32 Bohr mag/cell
     absolute magnetization    =     9.45 Bohr mag/cell
[tb_dev] Currently allocated     1.33E+01 Mbytes, locked:    0 /   6
[tb_pin] Currently allocated     0.00E+00 Mbytes, locked:    0 /   0

     iteration # 32     ecut=    60.00 Ry     beta= 0.40
     Davidson diagonalization with overlap

---- Real-time Memory Report at c_bands before calling an iterative solver
          6539 MiB given to the printing process from OS
          1493 MiB allocation reported by mallinfo(arena+hblkhd)
         52537 MiB available memory on the node where the printing process lives
     GPU memory used/free/total (MiB): 7888 / 8392 / 16280
------------------
     ethr =  1.00E-04,  avg # of iterations =  1.2

     total cpu time spent up to now is      530.4 secs

     WARNING: integrated charge=   104.00053138, expected=   104.00000000

     total energy              =   -1637.00704471 Ry
     estimated scf accuracy    <       0.04067489 Ry

     total magnetization       =     9.22 Bohr mag/cell
     absolute magnetization    =    10.26 Bohr mag/cell
[tb_dev] Currently allocated     1.33E+01 Mbytes, locked:    0 /   6
[tb_pin] Currently allocated     0.00E+00 Mbytes, locked:    0 /   0

     iteration # 33     ecut=    60.00 Ry     beta= 0.40
     Davidson diagonalization with overlap

---- Real-time Memory Report at c_bands before calling an iterative solver
          6560 MiB given to the printing process from OS
          1501 MiB allocation reported by mallinfo(arena+hblkhd)
         52529 MiB available memory on the node where the printing process lives
     GPU memory used/free/total (MiB): 7888 / 8392 / 16280
------------------
     ethr =  3.91E-05,  avg # of iterations =  1.7

     total cpu time spent up to now is      545.0 secs

     WARNING: integrated charge=   103.99993480, expected=   104.00000000

     total energy              =   -1637.01478878 Ry
     estimated scf accuracy    <       0.01869122 Ry

     total magnetization       =     9.22 Bohr mag/cell
     absolute magnetization    =    10.11 Bohr mag/cell
[tb_dev] Currently allocated     1.33E+01 Mbytes, locked:    0 /   6
[tb_pin] Currently allocated     0.00E+00 Mbytes, locked:    0 /   0

     iteration # 34     ecut=    60.00 Ry     beta= 0.40
     Davidson diagonalization with overlap

---- Real-time Memory Report at c_bands before calling an iterative solver
          6560 MiB given to the printing process from OS
          1509 MiB allocation reported by mallinfo(arena+hblkhd)
         52519 MiB available memory on the node where the printing process lives
     GPU memory used/free/total (MiB): 7888 / 8392 / 16280
------------------
     ethr =  1.80E-05,  avg # of iterations =  2.3

     total cpu time spent up to now is      561.5 secs

     WARNING: integrated charge=   103.99996994, expected=   104.00000000

     total energy              =   -1637.02008192 Ry
     estimated scf accuracy    <       0.02394283 Ry

     total magnetization       =     9.68 Bohr mag/cell
     absolute magnetization    =    10.22 Bohr mag/cell
[tb_dev] Currently allocated     1.33E+01 Mbytes, locked:    0 /   6
[tb_pin] Currently allocated     0.00E+00 Mbytes, locked:    0 /   0

     iteration # 35     ecut=    60.00 Ry     beta= 0.40
     Davidson diagonalization with overlap

---- Real-time Memory Report at c_bands before calling an iterative solver
          6562 MiB given to the printing process from OS
          1517 MiB allocation reported by mallinfo(arena+hblkhd)
         52514 MiB available memory on the node where the printing process lives
     GPU memory used/free/total (MiB): 7888 / 8392 / 16280
------------------
     ethr =  1.80E-05,  avg # of iterations =  1.6

     total cpu time spent up to now is      576.2 secs

     WARNING: integrated charge=   103.99996085, expected=   104.00000000

     total energy              =   -1637.02096370 Ry
     estimated scf accuracy    <       0.01315705 Ry

     total magnetization       =     9.29 Bohr mag/cell
     absolute magnetization    =    10.02 Bohr mag/cell
[tb_dev] Currently allocated     1.33E+01 Mbytes, locked:    0 /   6
[tb_pin] Currently allocated     0.00E+00 Mbytes, locked:    0 /   0

     iteration # 36     ecut=    60.00 Ry     beta= 0.40
     Davidson diagonalization with overlap

---- Real-time Memory Report at c_bands before calling an iterative solver
          6562 MiB given to the printing process from OS
          1524 MiB allocation reported by mallinfo(arena+hblkhd)
         52504 MiB available memory on the node where the printing process lives
     GPU memory used/free/total (MiB): 7888 / 8392 / 16280
------------------
     ethr =  1.27E-05,  avg # of iterations =  1.0

     total cpu time spent up to now is      590.3 secs

     total energy              =   -1637.02264013 Ry
     estimated scf accuracy    <       0.01324489 Ry

     total magnetization       =     9.39 Bohr mag/cell
     absolute magnetization    =    10.05 Bohr mag/cell
[tb_dev] Currently allocated     1.33E+01 Mbytes, locked:    0 /   6
[tb_pin] Currently allocated     0.00E+00 Mbytes, locked:    0 /   0

     iteration # 37     ecut=    60.00 Ry     beta= 0.40
     Davidson diagonalization with overlap

---- Real-time Memory Report at c_bands before calling an iterative solver
          6579 MiB given to the printing process from OS
          1532 MiB allocation reported by mallinfo(arena+hblkhd)
         52495 MiB available memory on the node where the printing process lives
     GPU memory used/free/total (MiB): 7888 / 8392 / 16280
------------------
     ethr =  1.27E-05,  avg # of iterations =  1.0

     total cpu time spent up to now is      604.4 secs

     WARNING: integrated charge=   104.00001651, expected=   104.00000000

     total energy              =   -1637.02086820 Ry
     estimated scf accuracy    <       0.05014643 Ry

     total magnetization       =     8.89 Bohr mag/cell
     absolute magnetization    =     9.75 Bohr mag/cell
[tb_dev] Currently allocated     1.33E+01 Mbytes, locked:    0 /   6
[tb_pin] Currently allocated     0.00E+00 Mbytes, locked:    0 /   0

     iteration # 38     ecut=    60.00 Ry     beta= 0.40
     Davidson diagonalization with overlap

---- Real-time Memory Report at c_bands before calling an iterative solver
          6587 MiB given to the printing process from OS
          1540 MiB allocation reported by mallinfo(arena+hblkhd)
         52490 MiB available memory on the node where the printing process lives
     GPU memory used/free/total (MiB): 7888 / 8392 / 16280
------------------
     ethr =  1.27E-05,  avg # of iterations =  1.0

     total cpu time spent up to now is      618.5 secs

     WARNING: integrated charge=   103.99977781, expected=   104.00000000

     total energy              =   -1637.01923056 Ry
     estimated scf accuracy    <       0.01281609 Ry

     total magnetization       =     9.32 Bohr mag/cell
     absolute magnetization    =    10.00 Bohr mag/cell
[tb_dev] Currently allocated     1.33E+01 Mbytes, locked:    0 /   6
[tb_pin] Currently allocated     0.00E+00 Mbytes, locked:    0 /   0

     iteration # 39     ecut=    60.00 Ry     beta= 0.40
     Davidson diagonalization with overlap

---- Real-time Memory Report at c_bands before calling an iterative solver
          6587 MiB given to the printing process from OS
          1548 MiB allocation reported by mallinfo(arena+hblkhd)
         52480 MiB available memory on the node where the printing process lives
     GPU memory used/free/total (MiB): 7888 / 8392 / 16280
------------------
     ethr =  1.23E-05,  avg # of iterations =  2.0

     total cpu time spent up to now is      633.6 secs

     WARNING: integrated charge=   103.99996203, expected=   104.00000000

     total energy              =   -1637.01584374 Ry
     estimated scf accuracy    <       0.03409452 Ry

     total magnetization       =     9.91 Bohr mag/cell
     absolute magnetization    =    10.35 Bohr mag/cell
[tb_dev] Currently allocated     1.33E+01 Mbytes, locked:    0 /   6
[tb_pin] Currently allocated     0.00E+00 Mbytes, locked:    0 /   0

     iteration # 40     ecut=    60.00 Ry     beta= 0.40
     Davidson diagonalization with overlap

---- Real-time Memory Report at c_bands before calling an iterative solver
          6602 MiB given to the printing process from OS
          1556 MiB allocation reported by mallinfo(arena+hblkhd)
         52474 MiB available memory on the node where the printing process lives
     GPU memory used/free/total (MiB): 7888 / 8392 / 16280
------------------
     ethr =  1.23E-05,  avg # of iterations =  2.0

     total cpu time spent up to now is      649.1 secs

     WARNING: integrated charge=   103.99993229, expected=   104.00000000

     total energy              =   -1637.02168524 Ry
     estimated scf accuracy    <       0.02748326 Ry

     total magnetization       =     9.02 Bohr mag/cell
     absolute magnetization    =     9.88 Bohr mag/cell
[tb_dev] Currently allocated     1.33E+01 Mbytes, locked:    0 /   6
[tb_pin] Currently allocated     0.00E+00 Mbytes, locked:    0 /   0

     iteration # 41     ecut=    60.00 Ry     beta= 0.40
     Davidson diagonalization with overlap

---- Real-time Memory Report at c_bands before calling an iterative solver
          6622 MiB given to the printing process from OS
          1564 MiB allocation reported by mallinfo(arena+hblkhd)
         52467 MiB available memory on the node where the printing process lives
     GPU memory used/free/total (MiB): 7888 / 8392 / 16280
------------------
     ethr =  1.23E-05,  avg # of iterations =  1.0

     total cpu time spent up to now is      663.2 secs

     WARNING: integrated charge=   104.00011133, expected=   104.00000000

     total energy              =   -1637.02211496 Ry
     estimated scf accuracy    <       0.02676403 Ry

     total magnetization       =     9.08 Bohr mag/cell
     absolute magnetization    =     9.87 Bohr mag/cell
[tb_dev] Currently allocated     1.33E+01 Mbytes, locked:    0 /   6
[tb_pin] Currently allocated     0.00E+00 Mbytes, locked:    0 /   0

     iteration # 42     ecut=    60.00 Ry     beta= 0.40
     Davidson diagonalization with overlap

---- Real-time Memory Report at c_bands before calling an iterative solver
          6622 MiB given to the printing process from OS
          1572 MiB allocation reported by mallinfo(arena+hblkhd)
         52457 MiB available memory on the node where the printing process lives
     GPU memory used/free/total (MiB): 7888 / 8392 / 16280
------------------
     ethr =  1.23E-05,  avg # of iterations =  1.5

     total cpu time spent up to now is      677.7 secs

     WARNING: integrated charge=   103.99998664, expected=   104.00000000

     total energy              =   -1637.02118017 Ry
     estimated scf accuracy    <       0.01713612 Ry

     total magnetization       =     9.17 Bohr mag/cell
     absolute magnetization    =     9.93 Bohr mag/cell
[tb_dev] Currently allocated     1.33E+01 Mbytes, locked:    0 /   6
[tb_pin] Currently allocated     0.00E+00 Mbytes, locked:    0 /   0

     iteration # 43     ecut=    60.00 Ry     beta= 0.40
     Davidson diagonalization with overlap

---- Real-time Memory Report at c_bands before calling an iterative solver
          6626 MiB given to the printing process from OS
          1579 MiB allocation reported by mallinfo(arena+hblkhd)
         52452 MiB available memory on the node where the printing process lives
     GPU memory used/free/total (MiB): 7888 / 8392 / 16280
------------------
     ethr =  1.23E-05,  avg # of iterations =  1.4

     total cpu time spent up to now is      692.2 secs

     WARNING: integrated charge=   103.99997543, expected=   104.00000000

     total energy              =   -1637.01999073 Ry
     estimated scf accuracy    <       0.02033898 Ry

     total magnetization       =     9.21 Bohr mag/cell
     absolute magnetization    =     9.91 Bohr mag/cell
[tb_dev] Currently allocated     1.33E+01 Mbytes, locked:    0 /   6
[tb_pin] Currently allocated     0.00E+00 Mbytes, locked:    0 /   0

     iteration # 44     ecut=    60.00 Ry     beta= 0.40
     Davidson diagonalization with overlap

---- Real-time Memory Report at c_bands before calling an iterative solver
          6633 MiB given to the printing process from OS
          1587 MiB allocation reported by mallinfo(arena+hblkhd)
         52444 MiB available memory on the node where the printing process lives
     GPU memory used/free/total (MiB): 7888 / 8392 / 16280
------------------
     ethr =  1.23E-05,  avg # of iterations =  1.0

     total cpu time spent up to now is      706.2 secs

     WARNING: integrated charge=   104.00005126, expected=   104.00000000

     total energy              =   -1637.00466467 Ry
     estimated scf accuracy    <       0.02454369 Ry

     total magnetization       =     9.15 Bohr mag/cell
     absolute magnetization    =     9.89 Bohr mag/cell
[tb_dev] Currently allocated     1.33E+01 Mbytes, locked:    0 /   6
[tb_pin] Currently allocated     0.00E+00 Mbytes, locked:    0 /   0

     iteration # 45     ecut=    60.00 Ry     beta= 0.40
     Davidson diagonalization with overlap

---- Real-time Memory Report at c_bands before calling an iterative solver
          6633 MiB given to the printing process from OS
          1595 MiB allocation reported by mallinfo(arena+hblkhd)
         52433 MiB available memory on the node where the printing process lives
     GPU memory used/free/total (MiB): 7888 / 8392 / 16280
------------------
     ethr =  1.23E-05,  avg # of iterations =  1.9

     total cpu time spent up to now is      721.2 secs

     WARNING: integrated charge=   103.99997100, expected=   104.00000000

     total energy              =   -1637.01364387 Ry
     estimated scf accuracy    <       0.01520771 Ry

     total magnetization       =     9.15 Bohr mag/cell
     absolute magnetization    =    10.02 Bohr mag/cell
[tb_dev] Currently allocated     1.33E+01 Mbytes, locked:    0 /   6
[tb_pin] Currently allocated     0.00E+00 Mbytes, locked:    0 /   0

     iteration # 46     ecut=    60.00 Ry     beta= 0.40
     Davidson diagonalization with overlap

---- Real-time Memory Report at c_bands before calling an iterative solver
          6650 MiB given to the printing process from OS
          1603 MiB allocation reported by mallinfo(arena+hblkhd)
         52428 MiB available memory on the node where the printing process lives
     GPU memory used/free/total (MiB): 7888 / 8392 / 16280
------------------
     ethr =  1.23E-05,  avg # of iterations =  1.0

     total cpu time spent up to now is      735.2 secs

     WARNING: integrated charge=   104.00005716, expected=   104.00000000

     total energy              =   -1637.01164010 Ry
     estimated scf accuracy    <       0.01477332 Ry

     total magnetization       =     9.18 Bohr mag/cell
     absolute magnetization    =     9.97 Bohr mag/cell
[tb_dev] Currently allocated     1.33E+01 Mbytes, locked:    0 /   6
[tb_pin] Currently allocated     0.00E+00 Mbytes, locked:    0 /   0

     iteration # 47     ecut=    60.00 Ry     beta= 0.40
     Davidson diagonalization with overlap

---- Real-time Memory Report at c_bands before calling an iterative solver
          6658 MiB given to the printing process from OS
          1611 MiB allocation reported by mallinfo(arena+hblkhd)
         52420 MiB available memory on the node where the printing process lives
     GPU memory used/free/total (MiB): 7888 / 8392 / 16280
------------------
     ethr =  1.23E-05,  avg # of iterations =  1.0

     total cpu time spent up to now is      749.4 secs

     WARNING: integrated charge=   104.00003726, expected=   104.00000000

     total energy              =   -1637.01479861 Ry
     estimated scf accuracy    <       0.00720588 Ry

     total magnetization       =     9.20 Bohr mag/cell
     absolute magnetization    =    10.06 Bohr mag/cell
[tb_dev] Currently allocated     1.33E+01 Mbytes, locked:    0 /   6
[tb_pin] Currently allocated     0.00E+00 Mbytes, locked:    0 /   0

     iteration # 48     ecut=    60.00 Ry     beta= 0.40
     Davidson diagonalization with overlap

---- Real-time Memory Report at c_bands before calling an iterative solver
          6664 MiB given to the printing process from OS
          1619 MiB allocation reported by mallinfo(arena+hblkhd)
         52409 MiB available memory on the node where the printing process lives
     GPU memory used/free/total (MiB): 7888 / 8392 / 16280
------------------
     ethr =  6.93E-06,  avg # of iterations =  1.2

     total cpu time spent up to now is      763.5 secs

     WARNING: integrated charge=   104.00011675, expected=   104.00000000

     total energy              =   -1637.01398340 Ry
     estimated scf accuracy    <       0.00779354 Ry

     total magnetization       =     9.18 Bohr mag/cell
     absolute magnetization    =    10.04 Bohr mag/cell
[tb_dev] Currently allocated     1.33E+01 Mbytes, locked:    0 /   6
[tb_pin] Currently allocated     0.00E+00 Mbytes, locked:    0 /   0

     iteration # 49     ecut=    60.00 Ry     beta= 0.40
     Davidson diagonalization with overlap

---- Real-time Memory Report at c_bands before calling an iterative solver
          6664 MiB given to the printing process from OS
          1626 MiB allocation reported by mallinfo(arena+hblkhd)
         52405 MiB available memory on the node where the printing process lives
     GPU memory used/free/total (MiB): 7888 / 8392 / 16280
------------------
     ethr =  6.93E-06,  avg # of iterations =  2.0

     total cpu time spent up to now is      778.6 secs

     WARNING: integrated charge=   104.00008145, expected=   104.00000000

     total energy              =   -1637.01623712 Ry
     estimated scf accuracy    <       0.00310877 Ry

     total magnetization       =     9.26 Bohr mag/cell
     absolute magnetization    =    10.16 Bohr mag/cell
[tb_dev] Currently allocated     1.33E+01 Mbytes, locked:    0 /   6
[tb_pin] Currently allocated     0.00E+00 Mbytes, locked:    0 /   0

     iteration # 50     ecut=    60.00 Ry     beta= 0.40
     Davidson diagonalization with overlap

---- Real-time Memory Report at c_bands before calling an iterative solver
          6681 MiB given to the printing process from OS
          1634 MiB allocation reported by mallinfo(arena+hblkhd)
         52397 MiB available memory on the node where the printing process lives
     GPU memory used/free/total (MiB): 7888 / 8392 / 16280
------------------
     ethr =  2.99E-06,  avg # of iterations =  1.4

     total cpu time spent up to now is      793.0 secs

     total energy              =   -1637.01583351 Ry
     estimated scf accuracy    <       0.00234843 Ry

     total magnetization       =     9.26 Bohr mag/cell
     absolute magnetization    =    10.12 Bohr mag/cell
[tb_dev] Currently allocated     1.33E+01 Mbytes, locked:    0 /   6
[tb_pin] Currently allocated     0.00E+00 Mbytes, locked:    0 /   0

     iteration # 51     ecut=    60.00 Ry     beta= 0.40
     Davidson diagonalization with overlap

---- Real-time Memory Report at c_bands before calling an iterative solver
          6702 MiB given to the printing process from OS
          1642 MiB allocation reported by mallinfo(arena+hblkhd)
         52387 MiB available memory on the node where the printing process lives
     GPU memory used/free/total (MiB): 7888 / 8392 / 16280
------------------
     ethr =  2.26E-06,  avg # of iterations =  2.6

     total cpu time spent up to now is      810.0 secs

     WARNING: integrated charge=   103.99996449, expected=   104.00000000

     total energy              =   -1637.01681276 Ry
     estimated scf accuracy    <       0.00073475 Ry

     total magnetization       =     9.28 Bohr mag/cell
     absolute magnetization    =    10.08 Bohr mag/cell
[tb_dev] Currently allocated     1.33E+01 Mbytes, locked:    0 /   6
[tb_pin] Currently allocated     0.00E+00 Mbytes, locked:    0 /   0

     iteration # 52     ecut=    60.00 Ry     beta= 0.40
     Davidson diagonalization with overlap

---- Real-time Memory Report at c_bands before calling an iterative solver
          6702 MiB given to the printing process from OS
          1650 MiB allocation reported by mallinfo(arena+hblkhd)
         52381 MiB available memory on the node where the printing process lives
     GPU memory used/free/total (MiB): 7888 / 8392 / 16280
------------------
     ethr =  7.06E-07,  avg # of iterations =  2.8

     total cpu time spent up to now is      825.8 secs

     WARNING: integrated charge=   104.00001728, expected=   104.00000000

     total energy              =   -1637.01662134 Ry
     estimated scf accuracy    <       0.00058585 Ry

     total magnetization       =     9.27 Bohr mag/cell
     absolute magnetization    =    10.02 Bohr mag/cell
[tb_dev] Currently allocated     1.33E+01 Mbytes, locked:    0 /   6
[tb_pin] Currently allocated     0.00E+00 Mbytes, locked:    0 /   0

     iteration # 53     ecut=    60.00 Ry     beta= 0.40
     Davidson diagonalization with overlap

---- Real-time Memory Report at c_bands before calling an iterative solver
          6702 MiB given to the printing process from OS
          1658 MiB allocation reported by mallinfo(arena+hblkhd)
         52371 MiB available memory on the node where the printing process lives
     GPU memory used/free/total (MiB): 7888 / 8392 / 16280
------------------
     ethr =  5.63E-07,  avg # of iterations =  2.1

     total cpu time spent up to now is      841.5 secs

     total energy              =   -1637.01691777 Ry
     estimated scf accuracy    <       0.00081055 Ry

     total magnetization       =     9.33 Bohr mag/cell
     absolute magnetization    =    10.11 Bohr mag/cell
[tb_dev] Currently allocated     1.33E+01 Mbytes, locked:    0 /   6
[tb_pin] Currently allocated     0.00E+00 Mbytes, locked:    0 /   0

     iteration # 54     ecut=    60.00 Ry     beta= 0.40
     Davidson diagonalization with overlap

---- Real-time Memory Report at c_bands before calling an iterative solver
          6702 MiB given to the printing process from OS
          1666 MiB allocation reported by mallinfo(arena+hblkhd)
         52366 MiB available memory on the node where the printing process lives
     GPU memory used/free/total (MiB): 7888 / 8392 / 16280
------------------
     ethr =  5.63E-07,  avg # of iterations =  2.0

     total cpu time spent up to now is      856.9 secs

     total energy              =   -1637.01729356 Ry
     estimated scf accuracy    <       0.00039162 Ry

     total magnetization       =     9.26 Bohr mag/cell
     absolute magnetization    =    10.03 Bohr mag/cell
[tb_dev] Currently allocated     1.33E+01 Mbytes, locked:    0 /   6
[tb_pin] Currently allocated     0.00E+00 Mbytes, locked:    0 /   0

     iteration # 55     ecut=    60.00 Ry     beta= 0.40
     Davidson diagonalization with overlap

---- Real-time Memory Report at c_bands before calling an iterative solver
          6708 MiB given to the printing process from OS
          1674 MiB allocation reported by mallinfo(arena+hblkhd)
         52358 MiB available memory on the node where the printing process lives
     GPU memory used/free/total (MiB): 7888 / 8392 / 16280
------------------
     ethr =  3.77E-07,  avg # of iterations =  1.6

     total cpu time spent up to now is      871.4 secs

     total energy              =   -1637.01732493 Ry
     estimated scf accuracy    <       0.00003084 Ry

     total magnetization       =     9.30 Bohr mag/cell
     absolute magnetization    =    10.05 Bohr mag/cell
[tb_dev] Currently allocated     1.33E+01 Mbytes, locked:    0 /   6
[tb_pin] Currently allocated     0.00E+00 Mbytes, locked:    0 /   0

     iteration # 56     ecut=    60.00 Ry     beta= 0.40
     Davidson diagonalization with overlap

---- Real-time Memory Report at c_bands before calling an iterative solver
          6728 MiB given to the printing process from OS
          1681 MiB allocation reported by mallinfo(arena+hblkhd)
         52347 MiB available memory on the node where the printing process lives
     GPU memory used/free/total (MiB): 7888 / 8392 / 16280
------------------
     ethr =  2.97E-08,  avg # of iterations =  3.0

     total cpu time spent up to now is      888.8 secs

     total energy              =   -1637.01736021 Ry
     estimated scf accuracy    <       0.00005084 Ry

     total magnetization       =     9.30 Bohr mag/cell
     absolute magnetization    =    10.05 Bohr mag/cell
[tb_dev] Currently allocated     1.33E+01 Mbytes, locked:    0 /   6
[tb_pin] Currently allocated     0.00E+00 Mbytes, locked:    0 /   0

     iteration # 57     ecut=    60.00 Ry     beta= 0.40
     Davidson diagonalization with overlap

---- Real-time Memory Report at c_bands before calling an iterative solver
          6747 MiB given to the printing process from OS
          1689 MiB allocation reported by mallinfo(arena+hblkhd)
         52342 MiB available memory on the node where the printing process lives
     GPU memory used/free/total (MiB): 7888 / 8392 / 16280
------------------
     ethr =  2.97E-08,  avg # of iterations =  2.1

     total cpu time spent up to now is      904.0 secs

     total energy              =   -1637.01737509 Ry
     estimated scf accuracy    <       0.00000682 Ry

     total magnetization       =     9.30 Bohr mag/cell
     absolute magnetization    =    10.06 Bohr mag/cell
[tb_dev] Currently allocated     1.33E+01 Mbytes, locked:    0 /   6
[tb_pin] Currently allocated     0.00E+00 Mbytes, locked:    0 /   0

     iteration # 58     ecut=    60.00 Ry     beta= 0.40
     Davidson diagonalization with overlap

---- Real-time Memory Report at c_bands before calling an iterative solver
          6747 MiB given to the printing process from OS
          1697 MiB allocation reported by mallinfo(arena+hblkhd)
         52335 MiB available memory on the node where the printing process lives
     GPU memory used/free/total (MiB): 7888 / 8392 / 16280
------------------
     ethr =  6.56E-09,  avg # of iterations =  2.2

     total cpu time spent up to now is      919.3 secs

     total energy              =   -1637.01738055 Ry
     estimated scf accuracy    <       0.00000578 Ry

     total magnetization       =     9.30 Bohr mag/cell
     absolute magnetization    =    10.06 Bohr mag/cell
[tb_dev] Currently allocated     1.33E+01 Mbytes, locked:    0 /   6
[tb_pin] Currently allocated     0.00E+00 Mbytes, locked:    0 /   0

     iteration # 59     ecut=    60.00 Ry     beta= 0.40
     Davidson diagonalization with overlap

---- Real-time Memory Report at c_bands before calling an iterative solver
          6764 MiB given to the printing process from OS
          1705 MiB allocation reported by mallinfo(arena+hblkhd)
         52325 MiB available memory on the node where the printing process lives
     GPU memory used/free/total (MiB): 7888 / 8392 / 16280
------------------
     ethr =  5.56E-09,  avg # of iterations =  1.3

     total cpu time spent up to now is      933.7 secs

     total energy              =   -1637.01738504 Ry
     estimated scf accuracy    <       0.00000515 Ry

     total magnetization       =     9.30 Bohr mag/cell
     absolute magnetization    =    10.06 Bohr mag/cell
[tb_dev] Currently allocated     1.33E+01 Mbytes, locked:    0 /   6
[tb_pin] Currently allocated     0.00E+00 Mbytes, locked:    0 /   0

     iteration # 60     ecut=    60.00 Ry     beta= 0.40
     Davidson diagonalization with overlap

---- Real-time Memory Report at c_bands before calling an iterative solver
          6772 MiB given to the printing process from OS
          1713 MiB allocation reported by mallinfo(arena+hblkhd)
         52318 MiB available memory on the node where the printing process lives
     GPU memory used/free/total (MiB): 7888 / 8392 / 16280
------------------
     ethr =  4.95E-09,  avg # of iterations =  2.5

     total cpu time spent up to now is      950.1 secs

     total energy              =   -1637.01739518 Ry
     estimated scf accuracy    <       0.00000483 Ry

     total magnetization       =     9.30 Bohr mag/cell
     absolute magnetization    =    10.06 Bohr mag/cell
[tb_dev] Currently allocated     1.33E+01 Mbytes, locked:    0 /   6
[tb_pin] Currently allocated     0.00E+00 Mbytes, locked:    0 /   0

     iteration # 61     ecut=    60.00 Ry     beta= 0.40
     Davidson diagonalization with overlap

---- Real-time Memory Report at c_bands before calling an iterative solver
          6779 MiB given to the printing process from OS
          1721 MiB allocation reported by mallinfo(arena+hblkhd)
         52310 MiB available memory on the node where the printing process lives
     GPU memory used/free/total (MiB): 7888 / 8392 / 16280
------------------
     ethr =  4.64E-09,  avg # of iterations =  2.1

     total cpu time spent up to now is      965.6 secs

     total energy              =   -1637.01728211 Ry
     estimated scf accuracy    <       0.00000472 Ry

     total magnetization       =     9.30 Bohr mag/cell
     absolute magnetization    =    10.06 Bohr mag/cell
[tb_dev] Currently allocated     1.33E+01 Mbytes, locked:    0 /   6
[tb_pin] Currently allocated     0.00E+00 Mbytes, locked:    0 /   0

     iteration # 62     ecut=    60.00 Ry     beta= 0.40
     Davidson diagonalization with overlap

---- Real-time Memory Report at c_bands before calling an iterative solver
          6779 MiB given to the printing process from OS
          1728 MiB allocation reported by mallinfo(arena+hblkhd)
         52301 MiB available memory on the node where the printing process lives
     GPU memory used/free/total (MiB): 7888 / 8392 / 16280
------------------
     ethr =  4.54E-09,  avg # of iterations =  4.5

     total cpu time spent up to now is      985.1 secs

     total energy              =   -1637.01744669 Ry
     estimated scf accuracy    <       0.00000489 Ry

     total magnetization       =     9.31 Bohr mag/cell
     absolute magnetization    =    10.05 Bohr mag/cell
[tb_dev] Currently allocated     1.33E+01 Mbytes, locked:    0 /   6
[tb_pin] Currently allocated     0.00E+00 Mbytes, locked:    0 /   0

     iteration # 63     ecut=    60.00 Ry     beta= 0.40
     Davidson diagonalization with overlap

---- Real-time Memory Report at c_bands before calling an iterative solver
          6783 MiB given to the printing process from OS
          1736 MiB allocation reported by mallinfo(arena+hblkhd)
[...]
     absolute magnetization    =    10.05 Bohr mag/cell
[tb_dev] Currently allocated     1.33E+01 Mbytes, locked:    0 /   6
[tb_pin] Currently allocated     0.00E+00 Mbytes, locked:    0 /   0

     iteration # 65     ecut=    60.00 Ry     beta= 0.40
     Davidson diagonalization with overlap

---- Real-time Memory Report at c_bands before calling an iterative solver
          6804 MiB given to the printing process from OS
          1752 MiB allocation reported by mallinfo(arena+hblkhd)
         52277 MiB available memory on the node where the printing process lives
     GPU memory used/free/total (MiB): 7888 / 8392 / 16280
------------------
     ethr =  4.45E-09,  avg # of iterations =  5.5

     total cpu time spent up to now is     1035.4 secs

     total energy              =   -1637.01752378 Ry
     estimated scf accuracy    <       0.00000633 Ry

     total magnetization       =     9.32 Bohr mag/cell
     absolute magnetization    =    10.05 Bohr mag/cell
[tb_dev] Currently allocated     1.33E+01 Mbytes, locked:    0 /   6
[tb_pin] Currently allocated     0.00E+00 Mbytes, locked:    0 /   0

     iteration # 66     ecut=    60.00 Ry     beta= 0.40
     Davidson diagonalization with overlap

---- Real-time Memory Report at c_bands before calling an iterative solver
          6818 MiB given to the printing process from OS
          1760 MiB allocation reported by mallinfo(arena+hblkhd)
         52272 MiB available memory on the node where the printing process lives
     GPU memory used/free/total (MiB): 7888 / 8392 / 16280
------------------
     ethr =  4.45E-09,  avg # of iterations =  2.2

     total cpu time spent up to now is     1051.9 secs

     total energy              =   -1637.01752141 Ry
     estimated scf accuracy    <       0.00000494 Ry

     total magnetization       =     9.31 Bohr mag/cell
     absolute magnetization    =    10.05 Bohr mag/cell
[tb_dev] Currently allocated     1.33E+01 Mbytes, locked:    0 /   6
[tb_pin] Currently allocated     0.00E+00 Mbytes, locked:    0 /   0

     iteration # 67     ecut=    60.00 Ry     beta= 0.40
     Davidson diagonalization with overlap

---- Real-time Memory Report at c_bands before calling an iterative solver
          6818 MiB given to the printing process from OS
          1768 MiB allocation reported by mallinfo(arena+hblkhd)
         52262 MiB available memory on the node where the printing process lives
     GPU memory used/free/total (MiB): 7888 / 8392 / 16280
------------------
     ethr =  4.45E-09,  avg # of iterations =  2.0

     total cpu time spent up to now is     1067.7 secs

     total energy              =   -1637.01752936 Ry
     estimated scf accuracy    <       0.00000472 Ry

     total magnetization       =     9.31 Bohr mag/cell
     absolute magnetization    =    10.05 Bohr mag/cell
[tb_dev] Currently allocated     1.33E+01 Mbytes, locked:    0 /   6
[tb_pin] Currently allocated     0.00E+00 Mbytes, locked:    0 /   0

     iteration # 68     ecut=    60.00 Ry     beta= 0.40
     Davidson diagonalization with overlap

---- Real-time Memory Report at c_bands before calling an iterative solver
          6823 MiB given to the printing process from OS
          1775 MiB allocation reported by mallinfo(arena+hblkhd)
         52256 MiB available memory on the node where the printing process lives
     GPU memory used/free/total (MiB): 7888 / 8392 / 16280
------------------
     ethr =  4.45E-09,  avg # of iterations =  1.5

     total cpu time spent up to now is     1082.5 secs

     total energy              =   -1637.01742356 Ry
     estimated scf accuracy    <       0.00000615 Ry

     total magnetization       =     9.32 Bohr mag/cell
     absolute magnetization    =    10.05 Bohr mag/cell
[tb_dev] Currently allocated     1.33E+01 Mbytes, locked:    0 /   6
[tb_pin] Currently allocated     0.00E+00 Mbytes, locked:    0 /   0

     iteration # 69     ecut=    60.00 Ry     beta= 0.40
     Davidson diagonalization with overlap

---- Real-time Memory Report at c_bands before calling an iterative solver
          6829 MiB given to the printing process from OS
          1783 MiB allocation reported by mallinfo(arena+hblkhd)
         52248 MiB available memory on the node where the printing process lives
     GPU memory used/free/total (MiB): 7888 / 8392 / 16280
------------------
     ethr =  4.45E-09,  avg # of iterations =  4.0

     total cpu time spent up to now is     1101.3 secs

     total energy              =   -1637.01745305 Ry
     estimated scf accuracy    <       0.00001087 Ry

     total magnetization       =     9.30 Bohr mag/cell
     absolute magnetization    =    10.05 Bohr mag/cell
[tb_dev] Currently allocated     1.33E+01 Mbytes, locked:    0 /   6
[tb_pin] Currently allocated     0.00E+00 Mbytes, locked:    0 /   0

     iteration # 70     ecut=    60.00 Ry     beta= 0.40
     Davidson diagonalization with overlap

---- Real-time Memory Report at c_bands before calling an iterative solver
          6849 MiB given to the printing process from OS
          1791 MiB allocation reported by mallinfo(arena+hblkhd)
         52238 MiB available memory on the node where the printing process lives
     GPU memory used/free/total (MiB): 7888 / 8392 / 16280
------------------
     ethr =  4.45E-09,  avg # of iterations =  3.8

     total cpu time spent up to now is     1119.6 secs

     total energy              =   -1637.01696882 Ry
     estimated scf accuracy    <       0.00002032 Ry

     total magnetization       =     9.29 Bohr mag/cell
     absolute magnetization    =    10.05 Bohr mag/cell
[tb_dev] Currently allocated     1.33E+01 Mbytes, locked:    0 /   6
[tb_pin] Currently allocated     0.00E+00 Mbytes, locked:    0 /   0

     iteration # 71     ecut=    60.00 Ry     beta= 0.40
     Davidson diagonalization with overlap

---- Real-time Memory Report at c_bands before calling an iterative solver
          6858 MiB given to the printing process from OS
          1799 MiB allocation reported by mallinfo(arena+hblkhd)
         52232 MiB available memory on the node where the printing process lives
     GPU memory used/free/total (MiB): 7888 / 8392 / 16280
------------------
     ethr =  4.45E-09,  avg # of iterations =  5.4

     total cpu time spent up to now is     1141.0 secs

     total energy              =   -1637.01578908 Ry
     estimated scf accuracy    <       0.00000478 Ry

     total magnetization       =     9.30 Bohr mag/cell
     absolute magnetization    =    10.05 Bohr mag/cell
[tb_dev] Currently allocated     1.33E+01 Mbytes, locked:    0 /   6
[tb_pin] Currently allocated     0.00E+00 Mbytes, locked:    0 /   0

     iteration # 72     ecut=    60.00 Ry     beta= 0.40
     Davidson diagonalization with overlap

---- Real-time Memory Report at c_bands before calling an iterative solver
          6866 MiB given to the printing process from OS
          1807 MiB allocation reported by mallinfo(arena+hblkhd)
         52225 MiB available memory on the node where the printing process lives
     GPU memory used/free/total (MiB): 7888 / 8392 / 16280
------------------
     ethr =  4.45E-09,  avg # of iterations =  6.5

     total cpu time spent up to now is     1164.1 secs

     total energy              =   -1637.01690133 Ry
     estimated scf accuracy    <       0.00000617 Ry

     total magnetization       =     9.30 Bohr mag/cell
     absolute magnetization    =    10.05 Bohr mag/cell
[tb_dev] Currently allocated     1.33E+01 Mbytes, locked:    0 /   6
[tb_pin] Currently allocated     0.00E+00 Mbytes, locked:    0 /   0

     iteration # 73     ecut=    60.00 Ry     beta= 0.40
     Davidson diagonalization with overlap

---- Real-time Memory Report at c_bands before calling an iterative solver
          6874 MiB given to the printing process from OS
          1815 MiB allocation reported by mallinfo(arena+hblkhd)
         52214 MiB available memory on the node where the printing process lives
     GPU memory used/free/total (MiB): 7888 / 8392 / 16280
------------------
     ethr =  4.45E-09,  avg # of iterations =  5.4

     total cpu time spent up to now is     1185.0 secs

     total energy              =   -1637.01477090 Ry
     estimated scf accuracy    <       0.00001926 Ry

     total magnetization       =     9.31 Bohr mag/cell
     absolute magnetization    =    10.05 Bohr mag/cell
[tb_dev] Currently allocated     1.33E+01 Mbytes, locked:    0 /   6
[tb_pin] Currently allocated     0.00E+00 Mbytes, locked:    0 /   0

     iteration # 74     ecut=    60.00 Ry     beta= 0.40
     Davidson diagonalization with overlap

---- Real-time Memory Report at c_bands before calling an iterative solver
          6881 MiB given to the printing process from OS
          1823 MiB allocation reported by mallinfo(arena+hblkhd)
         52208 MiB available memory on the node where the printing process lives
     GPU memory used/free/total (MiB): 7888 / 8392 / 16280
------------------
     ethr =  4.45E-09,  avg # of iterations =  7.1

     total cpu time spent up to now is     1209.2 secs

     total energy              =   -1637.01700964 Ry
     estimated scf accuracy    <       0.00000586 Ry

     total magnetization       =     9.32 Bohr mag/cell
     absolute magnetization    =    10.05 Bohr mag/cell
[tb_dev] Currently allocated     1.33E+01 Mbytes, locked:    0 /   6
[tb_pin] Currently allocated     0.00E+00 Mbytes, locked:    0 /   0

     iteration # 75     ecut=    60.00 Ry     beta= 0.40
     Davidson diagonalization with overlap

---- Real-time Memory Report at c_bands before calling an iterative solver
          6889 MiB given to the printing process from OS
          1830 MiB allocation reported by mallinfo(arena+hblkhd)
         52197 MiB available memory on the node where the printing process lives
     GPU memory used/free/total (MiB): 7888 / 8392 / 16280
------------------
     ethr =  4.45E-09,  avg # of iterations =  5.4

     total cpu time spent up to now is     1230.5 secs

     total energy              =   -1637.01693797 Ry
     estimated scf accuracy    <       0.00004463 Ry

     total magnetization       =     9.33 Bohr mag/cell
     absolute magnetization    =    10.06 Bohr mag/cell
[tb_dev] Currently allocated     1.33E+01 Mbytes, locked:    0 /   6
[tb_pin] Currently allocated     0.00E+00 Mbytes, locked:    0 /   0

     iteration # 76     ecut=    60.00 Ry     beta= 0.40
     Davidson diagonalization with overlap

---- Real-time Memory Report at c_bands before calling an iterative solver
          6897 MiB given to the printing process from OS
          1838 MiB allocation reported by mallinfo(arena+hblkhd)
         52189 MiB available memory on the node where the printing process lives
     GPU memory used/free/total (MiB): 7888 / 8392 / 16280
------------------
     ethr =  4.45E-09,  avg # of iterations =  5.7

     total cpu time spent up to now is     1252.2 secs

     total energy              =   -1637.01566235 Ry
     estimated scf accuracy    <       0.00019787 Ry

     total magnetization       =     9.34 Bohr mag/cell
     absolute magnetization    =    10.07 Bohr mag/cell
[tb_dev] Currently allocated     1.33E+01 Mbytes, locked:    0 /   6
[tb_pin] Currently allocated     0.00E+00 Mbytes, locked:    0 /   0

     iteration # 77     ecut=    60.00 Ry     beta= 0.40
     Davidson diagonalization with overlap

---- Real-time Memory Report at c_bands before calling an iterative solver
          6906 MiB given to the printing process from OS
          1846 MiB allocation reported by mallinfo(arena+hblkhd)
         52184 MiB available memory on the node where the printing process lives
     GPU memory used/free/total (MiB): 7888 / 8392 / 16280
------------------
     ethr =  4.45E-09,  avg # of iterations =  7.0

     total cpu time spent up to now is     1275.8 secs

     total energy              =   -1637.01741573 Ry
     estimated scf accuracy    <       0.00000654 Ry

     total magnetization       =     9.30 Bohr mag/cell
     absolute magnetization    =    10.05 Bohr mag/cell
[tb_dev] Currently allocated     1.33E+01 Mbytes, locked:    0 /   6
[tb_pin] Currently allocated     0.00E+00 Mbytes, locked:    0 /   0

     iteration # 78     ecut=    60.00 Ry     beta= 0.40
     Davidson diagonalization with overlap

---- Real-time Memory Report at c_bands before calling an iterative solver
          6906 MiB given to the printing process from OS
          1854 MiB allocation reported by mallinfo(arena+hblkhd)
         52176 MiB available memory on the node where the printing process lives
     GPU memory used/free/total (MiB): 7888 / 8392 / 16280
------------------
     ethr =  4.45E-09,  avg # of iterations =  4.2

     total cpu time spent up to now is     1295.0 secs

     total energy              =   -1637.01510762 Ry
     estimated scf accuracy    <       0.00000515 Ry

     total magnetization       =     9.30 Bohr mag/cell
     absolute magnetization    =    10.06 Bohr mag/cell
[tb_dev] Currently allocated     1.33E+01 Mbytes, locked:    0 /   6
[tb_pin] Currently allocated     0.00E+00 Mbytes, locked:    0 /   0

     iteration # 79     ecut=    60.00 Ry     beta= 0.40
     Davidson diagonalization with overlap

---- Real-time Memory Report at c_bands before calling an iterative solver
          6908 MiB given to the printing process from OS
          1862 MiB allocation reported by mallinfo(arena+hblkhd)
         52166 MiB available memory on the node where the printing process lives
     GPU memory used/free/total (MiB): 7888 / 8392 / 16280
------------------
     ethr =  4.45E-09,  avg # of iterations =  7.1

     total cpu time spent up to now is     1319.0 secs

     total energy              =   -1637.01736348 Ry
     estimated scf accuracy    <       0.00039789 Ry

     total magnetization       =     9.34 Bohr mag/cell
     absolute magnetization    =    10.08 Bohr mag/cell
[tb_dev] Currently allocated     1.33E+01 Mbytes, locked:    0 /   6
[tb_pin] Currently allocated     0.00E+00 Mbytes, locked:    0 /   0

     iteration # 80     ecut=    60.00 Ry     beta= 0.40
     Davidson diagonalization with overlap

---- Real-time Memory Report at c_bands before calling an iterative solver
          6916 MiB given to the printing process from OS
          1870 MiB allocation reported by mallinfo(arena+hblkhd)
         52162 MiB available memory on the node where the printing process lives
     GPU memory used/free/total (MiB): 7888 / 8392 / 16280
------------------
     ethr =  4.45E-09,  avg # of iterations =  4.6

     total cpu time spent up to now is     1338.6 secs

     total energy              =   -1637.01753765 Ry
     estimated scf accuracy    <       0.00058422 Ry

     total magnetization       =     9.34 Bohr mag/cell
     absolute magnetization    =    10.09 Bohr mag/cell

     End of self-consistent calculation

     convergence NOT achieved after  80 iterations: stopping

     Writing config to output data dir ./out/aiida.save/
 
     init_run     :     52.39s CPU     21.30s WALL (       1 calls)
     electrons    :   2758.91s CPU   1316.88s WALL (       1 calls)

     Called by init_run:
     wfcinit      :     11.00s CPU     14.35s WALL (       1 calls)
                                       14.35s GPU  (       1 calls)
     wfcinit:atom :      0.05s CPU      0.16s WALL (      72 calls)
                                        0.16s GPU  (      72 calls)
     wfcinit:wfcr :      4.87s CPU      5.60s WALL (      72 calls)
                                        5.60s GPU  (      72 calls)
     potinit      :     25.05s CPU      2.33s WALL (       1 calls)
     hinit0       :      8.86s CPU      2.78s WALL (       1 calls)

     Called by electrons:
     c_bands      :    865.75s CPU    895.26s WALL (      80 calls)
     sum_band     :    234.13s CPU    238.56s WALL (      80 calls)
     v_of_rho     :     40.12s CPU     13.83s WALL (      81 calls)
     v_h          :     22.14s CPU      2.09s WALL (      81 calls)
     v_xc         :     17.98s CPU     11.74s WALL (      81 calls)
     newd         :    190.66s CPU     34.82s WALL (      81 calls)
                                       34.82s GPU  (      81 calls)
     PAW_pot      :   1181.48s CPU    107.01s WALL (      81 calls)
     mix_rho      :    208.79s CPU     22.06s WALL (      80 calls)

     Called by c_bands:
     init_us_2    :     17.27s CPU     23.15s WALL (   11592 calls)
     init_us_2:gp :     17.02s CPU     22.91s WALL (   11592 calls)
     cegterg      :    666.83s CPU    687.22s WALL (    5760 calls)

     Called by sum_band:
     sum_band:wei :      0.44s CPU      0.44s WALL (      80 calls)
                                        0.44s GPU  (      80 calls)
     sum_band:loo :    195.15s CPU    199.40s WALL (      80 calls)
                                      199.40s GPU  (      80 calls)
     sum_band:buf :     90.61s CPU     91.13s WALL (    5760 calls)
                                       91.09s GPU  (    5760 calls)
     sum_band:ini :      8.02s CPU      9.37s WALL (    5760 calls)
                                        9.33s GPU  (    5760 calls)
     sum_band:cal :      0.26s CPU      9.80s WALL (    5760 calls)
                                        5.97s GPU  (    5760 calls)
     sum_band:bec :      1.58s CPU      1.67s WALL (    5760 calls)
                                        1.63s GPU  (    5760 calls)
     addusdens    :     24.87s CPU     24.98s WALL (      80 calls)
                                       24.98s GPU  (      80 calls)
     addusd:skk   :      0.07s CPU      0.07s WALL (     160 calls)
                                        0.07s GPU  (     160 calls)

     Called by *egterg:
     cdiaghg      :     97.81s CPU    112.58s WALL (   21088 calls)
                                      112.42s GPU  (   21088 calls)
     cegterg:over :     19.48s CPU     19.83s WALL (   15328 calls)
     cegterg:upda :     18.80s CPU     19.56s WALL (   15328 calls)
     cegterg:last :     18.71s CPU     18.96s WALL (   10690 calls)
     h_psi        :    470.97s CPU    475.34s WALL (   21160 calls)
                                      473.97s GPU  (   21160 calls)
     s_psi        :      5.62s CPU     22.17s WALL (   21160 calls)
                                       19.12s GPU  (   21160 calls)
     g_psi        :      0.12s CPU      2.95s WALL (   15328 calls)
                                        2.86s GPU  (   15328 calls)

     Called by h_psi:
     h_psi:calbec :      0.80s CPU     19.98s WALL (   21160 calls)
                                       19.84s GPU  (   21160 calls)
     vloc_psi     :    425.18s CPU    429.03s WALL (   21160 calls)
                                      428.90s GPU  (   21160 calls)
     add_vuspsi   :      4.54s CPU     20.36s WALL (   21160 calls)
                                       20.18s GPU  (   21160 calls)

     General routines
     calbec       :      0.79s CPU      0.81s WALL (   26920 calls)
     fft          :      7.86s CPU      1.72s WALL (    2023 calls)
                                        1.20s GPU  (    1861 calls)
     ffts         :      0.73s CPU      0.18s WALL (     322 calls)
                                        0.04s GPU  (     160 calls)
     fftw         :      3.03s CPU    367.34s WALL (  146354 calls)
                                      365.72s GPU  (  146354 calls)
     interpolate  :     29.00s CPU      2.55s WALL (     162 calls)
     davcio       :      0.05s CPU      2.65s WALL (      90 calls)
 
     Parallel routines

     PAW routines
     PAW_pot      :   1181.48s CPU    107.01s WALL (      81 calls)
     PAW_symme    :      0.52s CPU      0.08s WALL (     161 calls)
 
     PWSCF        :  46m54.44s CPU  22m22.20s WALL

 
   This run was terminated on:  17:31:50  22Oct2023            

=------------------------------------------------------------------------------=
   JOB DONE.
=------------------------------------------------------------------------------=
