
     Program PWSCF v.7.2 starts on 22Oct2023 at 17:30:14 

     This program is part of the open-source Quantum ESPRESSO suite
     for quantum simulation of materials; please cite
         "P. Giannozzi et al., J. Phys.:Condens. Matter 21 395502 (2009);
         "P. Giannozzi et al., J. Phys.:Condens. Matter 29 465901 (2017);
         "P. Giannozzi et al., J. Chem. Phys. 152 154105 (2020);
          URL http://www.quantum-espresso.org", 
     in publications or presentations arising from this work. More details at
     http://www.quantum-espresso.org/quote

     Parallel version (MPI & OpenMP), running on      12 processor cores
     Number of MPI processes:                 1
     Threads/MPI process:                    12

     MPI processes distributed on     1 nodes
     60332 MiB available memory on the printing compute node when the environment starts
 
     Reading input from aiida.in

     Current dimensions of program PWSCF are:
     Max number of different atomic species (ntypx) = 10
     Max number of k-points (npk) =  40000
     Max angular momentum in pseudopotentials (lmaxx) =  4
     file O.pbesol-n-kjpaw_psl.0.1.UPF: wavefunction(s)  2P renormalized
     Message from routine setup:
     using ibrav=0 with symmetry is DISCOURAGED, use correct ibrav instead
 
     Subspace diagonalization in iterative solution of the eigenvalue problem:
     a serial algorithm will be used

 
     G-vector sticks info
     --------------------
     sticks:   dense  smooth     PW     G-vecs:    dense   smooth      PW
     Sum        5457    2715    777               288705   102081   15583
 
     Using Slab Decomposition
 


     bravais-lattice index     =            0
     lattice parameter (alat)  =       7.5419  a.u.
     unit-cell volume          =    2137.6863 (a.u.)^3
     number of atoms/cell      =           12
     number of atomic types    =            2
     number of electrons       =        76.00
     number of Kohn-Sham states=           46
     kinetic-energy cutoff     =      50.0000  Ry
     charge density cutoff     =     400.0000  Ry
     scf convergence threshold =      2.4E-09
     mixing beta               =       0.4000
     number of iterations used =            8  plain     mixing
     Exchange-correlation= SLA  PW   PSX  PSC
                           (   1   4  10   8   0   0   0)

     GPU acceleration is ACTIVE.


     GPU used by master process:

        Device Number: 0
        Device name: Tesla P100-PCIE-16GB
        Compute capability : 60
        Ratio of single to double precision performance  : 2
        Memory Clock Rate (KHz): 715000
        Memory Bus Width (bits): 4096
        Peak Memory Bandwidth (GB/s): 732.16

     celldm(1)=   7.541897  celldm(2)=   0.000000  celldm(3)=   0.000000
     celldm(4)=   0.000000  celldm(5)=   0.000000  celldm(6)=   0.000000

     crystal axes: (cart. coord. in units of alat)
               a(1) = (   1.000000   0.000000   0.000000 )  
               a(2) = (   0.000000   3.020546   0.000000 )  
               a(3) = (  -0.308145   0.000000   1.649745 )  

     reciprocal axes: (cart. coord. in units 2 pi/alat)
               b(1) = (  1.000000 -0.000000  0.186784 )  
               b(2) = (  0.000000  0.331066 -0.000000 )  
               b(3) = (  0.000000  0.000000  0.606154 )  


     PseudoPot. # 1 for Cl read from file:
     ./pseudo/cl_pbesol_v1.4.uspp.F.UPF
     MD5 check sum: ed6bbcf06f19043c0df9f6394706ff8f
     Pseudo is Ultrasoft + core correction, Zval =  7.0
     Generated by new atomic code, or converted to UPF format
     Using radial grid of  909 points,  6 beta functions with: 
                l(1) =   0
                l(2) =   0
                l(3) =   1
                l(4) =   1
                l(5) =   2
                l(6) =   2
     Q(r) pseudized with  8 coefficients,  rinner =    1.300   1.300   1.300
                                                       1.300   1.300

     PseudoPot. # 2 for O  read from file:
     ./pseudo/O.pbesol-n-kjpaw_psl.0.1.UPF
     MD5 check sum: 81d73d1479e654e5638b0319f0d6c2c7
     Pseudo is Projector augmented-wave + core cor, Zval =  6.0
     Generated using "atomic" code by A. Dal Corso  v.6.0 svn rev. 13079
     Shape of augmentation charge: BESSEL
     Using radial grid of 1095 points,  4 beta functions with: 
                l(1) =   0
                l(2) =   0
                l(3) =   1
                l(4) =   1
     Q(r) pseudized with 0 coefficients 


     atomic species   valence    mass     pseudopotential
        Cl             7.00    35.45300     Cl( 1.00)
        O              6.00    15.99940     O ( 1.00)

     Starting magnetic structure 
     atomic species   magnetization
        Cl           0.100
        O            0.100

      4 Sym. Ops., with inversion, found ( 2 have fractional translation)


                                    s                        frac. trans.

      isym =  1     identity                                     

 cryst.   s( 1) = (     1          0          0      )
                  (     0          1          0      )
                  (     0          0          1      )

 cart.    s( 1) = (  1.0000000  0.0000000  0.0000000 )
                  (  0.0000000  1.0000000  0.0000000 )
                  (  0.0000000  0.0000000  1.0000000 )


      isym =  2     180 deg rotation - cart. axis [0,1,0]        

 cryst.   s( 2) = (    -1          0          0      )    f =( -0.0000000 )
                  (     0          1          0      )       (  0.5000000 )
                  (     0          0         -1      )       (  0.5000000 )

 cart.    s( 2) = ( -1.0000000  0.0000000 -0.0000000 )    f =( -0.1540727 )
                  (  0.0000000  1.0000000  0.0000000 )       (  1.5102731 )
                  (  0.0000000  0.0000000 -1.0000000 )       (  0.8248723 )


      isym =  3     inversion                                    

 cryst.   s( 3) = (    -1          0          0      )
                  (     0         -1          0      )
                  (     0          0         -1      )

 cart.    s( 3) = ( -1.0000000  0.0000000 -0.0000000 )
                  (  0.0000000 -1.0000000  0.0000000 )
                  (  0.0000000  0.0000000 -1.0000000 )


      isym =  4     inv. 180 deg rotation - cart. axis [0,1,0]   

 cryst.   s( 4) = (     1          0          0      )    f =( -0.0000000 )
                  (     0         -1          0      )       ( -0.5000000 )
                  (     0          0          1      )       (  0.5000000 )

 cart.    s( 4) = (  1.0000000  0.0000000  0.0000000 )    f =( -0.1540727 )
                  (  0.0000000 -1.0000000  0.0000000 )       ( -1.5102731 )
                  (  0.0000000  0.0000000  1.0000000 )       (  0.8248723 )


   Cartesian axes

     site n.     atom                  positions (alat units)
         1           Cl  tau(   1) = (   0.8733945   0.5204401   0.5803801  )
         2           Cl  tau(   2) = (   0.7193218   0.9898330   1.4052524  )
         3           Cl  tau(   3) = (  -0.0274671   2.0307132   0.2444921  )
         4           Cl  tau(   4) = (  -0.1815398   2.5001061   1.0693644  )
         5           O   tau(   5) = (   0.6426698   1.3374979   0.3342383  )
         6           O   tau(   6) = (   0.4885971   0.1727752   1.1591105  )
         7           O   tau(   7) = (   0.2032576   2.8477710   0.4906340  )
         8           O   tau(   8) = (   0.0491849   1.6830484   1.3155063  )
         9           O   tau(   9) = (   0.3001461   1.1239453   0.7846185  )
        10           O   tau(  10) = (   0.1460734   0.3863279   1.6094908  )
        11           O   tau(  11) = (   0.5457813   2.6342184   0.0402538  )
        12           O   tau(  12) = (   0.3917086   1.8966010   0.8651261  )

   Crystallographic axes

     site n.     atom                  positions (cryst. coord.)
         1           Cl  tau(   1) = (  0.9818000  0.1723000  0.3518000  )
         2           Cl  tau(   2) = (  0.9818000  0.3277000  0.8518000  )
         3           Cl  tau(   3) = (  0.0182000  0.6723000  0.1482000  )
         4           Cl  tau(   4) = (  0.0182000  0.8277000  0.6482000  )
         5           O   tau(   5) = (  0.7051000  0.4428000  0.2026000  )
         6           O   tau(   6) = (  0.7051000  0.0572000  0.7026000  )
         7           O   tau(   7) = (  0.2949000  0.9428000  0.2974000  )
         8           O   tau(   8) = (  0.2949000  0.5572000  0.7974000  )
         9           O   tau(   9) = (  0.4467000  0.3721000  0.4756000  )
        10           O   tau(  10) = (  0.4467000  0.1279000  0.9756000  )
        11           O   tau(  11) = (  0.5533000  0.8721000  0.0244000  )
        12           O   tau(  12) = (  0.5533000  0.6279000  0.5244000  )

     number of k points=   117  Marzari-Vanderbilt smearing, width (Ry)=  0.0100
                       cart. coord. in units 2pi/alat
        k(    1) = (   0.0000000   0.0000000   0.0000000), wk =   0.0032468
        k(    2) = (   0.0000000   0.0000000   0.0865935), wk =   0.0064935
        k(    3) = (   0.0000000   0.0000000   0.1731870), wk =   0.0064935
        k(    4) = (   0.0000000   0.0000000   0.2597805), wk =   0.0064935
        k(    5) = (   0.0000000   0.0827665   0.0000000), wk =   0.0064935
        k(    6) = (   0.0000000   0.0827665   0.0865935), wk =   0.0129870
        k(    7) = (   0.0000000   0.0827665   0.1731870), wk =   0.0129870
        k(    8) = (   0.0000000   0.0827665   0.2597805), wk =   0.0129870
        k(    9) = (   0.0000000  -0.1655330   0.0000000), wk =   0.0032468
        k(   10) = (   0.0000000  -0.1655330   0.0865935), wk =   0.0064935
        k(   11) = (   0.0000000  -0.1655330   0.1731870), wk =   0.0064935
        k(   12) = (   0.0000000  -0.1655330   0.2597805), wk =   0.0064935
        k(   13) = (   0.0909091   0.0000000   0.0169803), wk =   0.0064935
        k(   14) = (   0.0909091   0.0000000   0.1035738), wk =   0.0064935
        k(   15) = (   0.0909091   0.0000000   0.1901673), wk =   0.0064935
        k(   16) = (   0.0909091   0.0000000   0.2767608), wk =   0.0064935
        k(   17) = (   0.0909091   0.0000000  -0.2428001), wk =   0.0064935
        k(   18) = (   0.0909091   0.0000000  -0.1562067), wk =   0.0064935
        k(   19) = (   0.0909091   0.0000000  -0.0696132), wk =   0.0064935
        k(   20) = (   0.0909091   0.0827665   0.0169803), wk =   0.0129870
        k(   21) = (   0.0909091   0.0827665   0.1035738), wk =   0.0129870
        k(   22) = (   0.0909091   0.0827665   0.1901673), wk =   0.0129870
        k(   23) = (   0.0909091   0.0827665   0.2767608), wk =   0.0129870
        k(   24) = (   0.0909091   0.0827665  -0.2428001), wk =   0.0129870
        k(   25) = (   0.0909091   0.0827665  -0.1562067), wk =   0.0129870
        k(   26) = (   0.0909091   0.0827665  -0.0696132), wk =   0.0129870
        k(   27) = (   0.0909091  -0.1655330   0.0169803), wk =   0.0064935
        k(   28) = (   0.0909091  -0.1655330   0.1035738), wk =   0.0064935
        k(   29) = (   0.0909091  -0.1655330   0.1901673), wk =   0.0064935
        k(   30) = (   0.0909091  -0.1655330   0.2767608), wk =   0.0064935
        k(   31) = (   0.0909091  -0.1655330  -0.2428001), wk =   0.0064935
        k(   32) = (   0.0909091  -0.1655330  -0.1562067), wk =   0.0064935
        k(   33) = (   0.0909091  -0.1655330  -0.0696132), wk =   0.0064935
        k(   34) = (   0.1818182   0.0000000   0.0339607), wk =   0.0064935
        k(   35) = (   0.1818182   0.0000000   0.1205542), wk =   0.0064935
        k(   36) = (   0.1818182   0.0000000   0.2071476), wk =   0.0064935
        k(   37) = (   0.1818182   0.0000000   0.2937411), wk =   0.0064935
        k(   38) = (   0.1818182   0.0000000  -0.2258198), wk =   0.0064935
        k(   39) = (   0.1818182   0.0000000  -0.1392263), wk =   0.0064935
        k(   40) = (   0.1818182   0.0000000  -0.0526328), wk =   0.0064935
        k(   41) = (   0.1818182   0.0827665   0.0339607), wk =   0.0129870
        k(   42) = (   0.1818182   0.0827665   0.1205542), wk =   0.0129870
        k(   43) = (   0.1818182   0.0827665   0.2071476), wk =   0.0129870
        k(   44) = (   0.1818182   0.0827665   0.2937411), wk =   0.0129870
        k(   45) = (   0.1818182   0.0827665  -0.2258198), wk =   0.0129870
        k(   46) = (   0.1818182   0.0827665  -0.1392263), wk =   0.0129870
        k(   47) = (   0.1818182   0.0827665  -0.0526328), wk =   0.0129870
        k(   48) = (   0.1818182  -0.1655330   0.0339607), wk =   0.0064935
        k(   49) = (   0.1818182  -0.1655330   0.1205542), wk =   0.0064935
        k(   50) = (   0.1818182  -0.1655330   0.2071476), wk =   0.0064935
        k(   51) = (   0.1818182  -0.1655330   0.2937411), wk =   0.0064935
        k(   52) = (   0.1818182  -0.1655330  -0.2258198), wk =   0.0064935
        k(   53) = (   0.1818182  -0.1655330  -0.1392263), wk =   0.0064935
        k(   54) = (   0.1818182  -0.1655330  -0.0526328), wk =   0.0064935
        k(   55) = (   0.2727273   0.0000000   0.0509410), wk =   0.0064935
        k(   56) = (   0.2727273   0.0000000   0.1375345), wk =   0.0064935
        k(   57) = (   0.2727273   0.0000000   0.2241280), wk =   0.0064935
        k(   58) = (   0.2727273   0.0000000   0.3107215), wk =   0.0064935
        k(   59) = (   0.2727273   0.0000000  -0.2088395), wk =   0.0064935
        k(   60) = (   0.2727273   0.0000000  -0.1222460), wk =   0.0064935
        k(   61) = (   0.2727273   0.0000000  -0.0356525), wk =   0.0064935
        k(   62) = (   0.2727273   0.0827665   0.0509410), wk =   0.0129870
        k(   63) = (   0.2727273   0.0827665   0.1375345), wk =   0.0129870
        k(   64) = (   0.2727273   0.0827665   0.2241280), wk =   0.0129870
        k(   65) = (   0.2727273   0.0827665   0.3107215), wk =   0.0129870
        k(   66) = (   0.2727273   0.0827665  -0.2088395), wk =   0.0129870
        k(   67) = (   0.2727273   0.0827665  -0.1222460), wk =   0.0129870
        k(   68) = (   0.2727273   0.0827665  -0.0356525), wk =   0.0129870
        k(   69) = (   0.2727273  -0.1655330   0.0509410), wk =   0.0064935
        k(   70) = (   0.2727273  -0.1655330   0.1375345), wk =   0.0064935
        k(   71) = (   0.2727273  -0.1655330   0.2241280), wk =   0.0064935
        k(   72) = (   0.2727273  -0.1655330   0.3107215), wk =   0.0064935
        k(   73) = (   0.2727273  -0.1655330  -0.2088395), wk =   0.0064935
        k(   74) = (   0.2727273  -0.1655330  -0.1222460), wk =   0.0064935
        k(   75) = (   0.2727273  -0.1655330  -0.0356525), wk =   0.0064935
        k(   76) = (   0.3636364   0.0000000   0.0679213), wk =   0.0064935
        k(   77) = (   0.3636364   0.0000000   0.1545148), wk =   0.0064935
        k(   78) = (   0.3636364   0.0000000   0.2411083), wk =   0.0064935
        k(   79) = (   0.3636364   0.0000000   0.3277018), wk =   0.0064935
        k(   80) = (   0.3636364   0.0000000  -0.1918591), wk =   0.0064935
        k(   81) = (   0.3636364   0.0000000  -0.1052657), wk =   0.0064935
        k(   82) = (   0.3636364   0.0000000  -0.0186722), wk =   0.0064935
        k(   83) = (   0.3636364   0.0827665   0.0679213), wk =   0.0129870
        k(   84) = (   0.3636364   0.0827665   0.1545148), wk =   0.0129870
        k(   85) = (   0.3636364   0.0827665   0.2411083), wk =   0.0129870
        k(   86) = (   0.3636364   0.0827665   0.3277018), wk =   0.0129870
        k(   87) = (   0.3636364   0.0827665  -0.1918591), wk =   0.0129870
        k(   88) = (   0.3636364   0.0827665  -0.1052657), wk =   0.0129870
        k(   89) = (   0.3636364   0.0827665  -0.0186722), wk =   0.0129870
        k(   90) = (   0.3636364  -0.1655330   0.0679213), wk =   0.0064935
        k(   91) = (   0.3636364  -0.1655330   0.1545148), wk =   0.0064935
        k(   92) = (   0.3636364  -0.1655330   0.2411083), wk =   0.0064935
        k(   93) = (   0.3636364  -0.1655330   0.3277018), wk =   0.0064935
        k(   94) = (   0.3636364  -0.1655330  -0.1918591), wk =   0.0064935
        k(   95) = (   0.3636364  -0.1655330  -0.1052657), wk =   0.0064935
        k(   96) = (   0.3636364  -0.1655330  -0.0186722), wk =   0.0064935
        k(   97) = (   0.4545455   0.0000000   0.0849017), wk =   0.0064935
        k(   98) = (   0.4545455   0.0000000   0.1714951), wk =   0.0064935
        k(   99) = (   0.4545455   0.0000000   0.2580886), wk =   0.0064935
        k(  100) = (   0.4545455   0.0000000   0.3446821), wk =   0.0064935
        k(  101) = (   0.4545455   0.0000000  -0.1748788), wk =   0.0064935
        k(  102) = (   0.4545455   0.0000000  -0.0882853), wk =   0.0064935
        k(  103) = (   0.4545455   0.0000000  -0.0016918), wk =   0.0064935
        k(  104) = (   0.4545455   0.0827665   0.0849017), wk =   0.0129870
        k(  105) = (   0.4545455   0.0827665   0.1714951), wk =   0.0129870
        k(  106) = (   0.4545455   0.0827665   0.2580886), wk =   0.0129870
        k(  107) = (   0.4545455   0.0827665   0.3446821), wk =   0.0129870
        k(  108) = (   0.4545455   0.0827665  -0.1748788), wk =   0.0129870
        k(  109) = (   0.4545455   0.0827665  -0.0882853), wk =   0.0129870
        k(  110) = (   0.4545455   0.0827665  -0.0016918), wk =   0.0129870
        k(  111) = (   0.4545455  -0.1655330   0.0849017), wk =   0.0064935
        k(  112) = (   0.4545455  -0.1655330   0.1714951), wk =   0.0064935
        k(  113) = (   0.4545455  -0.1655330   0.2580886), wk =   0.0064935
        k(  114) = (   0.4545455  -0.1655330   0.3446821), wk =   0.0064935
        k(  115) = (   0.4545455  -0.1655330  -0.1748788), wk =   0.0064935
        k(  116) = (   0.4545455  -0.1655330  -0.0882853), wk =   0.0064935
        k(  117) = (   0.4545455  -0.1655330  -0.0016918), wk =   0.0064935

                       cryst. coord.
        k(    1) = (   0.0000000   0.0000000   0.0000000), wk =   0.0032468
        k(    2) = (   0.0000000   0.0000000   0.1428571), wk =   0.0064935
        k(    3) = (   0.0000000   0.0000000   0.2857143), wk =   0.0064935
        k(    4) = (   0.0000000   0.0000000   0.4285714), wk =   0.0064935
        k(    5) = (   0.0000000   0.2500000   0.0000000), wk =   0.0064935
        k(    6) = (   0.0000000   0.2500000   0.1428571), wk =   0.0129870
        k(    7) = (   0.0000000   0.2500000   0.2857143), wk =   0.0129870
        k(    8) = (   0.0000000   0.2500000   0.4285714), wk =   0.0129870
        k(    9) = (   0.0000000  -0.5000000   0.0000000), wk =   0.0032468
        k(   10) = (   0.0000000  -0.5000000   0.1428571), wk =   0.0064935
        k(   11) = (   0.0000000  -0.5000000   0.2857143), wk =   0.0064935
        k(   12) = (   0.0000000  -0.5000000   0.4285714), wk =   0.0064935
        k(   13) = (   0.0909091   0.0000000  -0.0000000), wk =   0.0064935
        k(   14) = (   0.0909091   0.0000000   0.1428571), wk =   0.0064935
        k(   15) = (   0.0909091   0.0000000   0.2857143), wk =   0.0064935
        k(   16) = (   0.0909091   0.0000000   0.4285714), wk =   0.0064935
        k(   17) = (   0.0909091   0.0000000  -0.4285714), wk =   0.0064935
        k(   18) = (   0.0909091   0.0000000  -0.2857143), wk =   0.0064935
        k(   19) = (   0.0909091   0.0000000  -0.1428571), wk =   0.0064935
        k(   20) = (   0.0909091   0.2500000  -0.0000000), wk =   0.0129870
        k(   21) = (   0.0909091   0.2500000   0.1428571), wk =   0.0129870
        k(   22) = (   0.0909091   0.2500000   0.2857143), wk =   0.0129870
        k(   23) = (   0.0909091   0.2500000   0.4285714), wk =   0.0129870
        k(   24) = (   0.0909091   0.2500000  -0.4285714), wk =   0.0129870
        k(   25) = (   0.0909091   0.2500000  -0.2857143), wk =   0.0129870
        k(   26) = (   0.0909091   0.2500000  -0.1428571), wk =   0.0129870
        k(   27) = (   0.0909091  -0.5000000  -0.0000000), wk =   0.0064935
        k(   28) = (   0.0909091  -0.5000000   0.1428571), wk =   0.0064935
        k(   29) = (   0.0909091  -0.5000000   0.2857143), wk =   0.0064935
        k(   30) = (   0.0909091  -0.5000000   0.4285714), wk =   0.0064935
        k(   31) = (   0.0909091  -0.5000000  -0.4285714), wk =   0.0064935
        k(   32) = (   0.0909091  -0.5000000  -0.2857143), wk =   0.0064935
        k(   33) = (   0.0909091  -0.5000000  -0.1428571), wk =   0.0064935
        k(   34) = (   0.1818182   0.0000000  -0.0000000), wk =   0.0064935
        k(   35) = (   0.1818182   0.0000000   0.1428571), wk =   0.0064935
        k(   36) = (   0.1818182   0.0000000   0.2857143), wk =   0.0064935
        k(   37) = (   0.1818182   0.0000000   0.4285714), wk =   0.0064935
        k(   38) = (   0.1818182   0.0000000  -0.4285714), wk =   0.0064935
        k(   39) = (   0.1818182   0.0000000  -0.2857143), wk =   0.0064935
        k(   40) = (   0.1818182   0.0000000  -0.1428571), wk =   0.0064935
        k(   41) = (   0.1818182   0.2500000  -0.0000000), wk =   0.0129870
        k(   42) = (   0.1818182   0.2500000   0.1428571), wk =   0.0129870
        k(   43) = (   0.1818182   0.2500000   0.2857143), wk =   0.0129870
        k(   44) = (   0.1818182   0.2500000   0.4285714), wk =   0.0129870
        k(   45) = (   0.1818182   0.2500000  -0.4285714), wk =   0.0129870
        k(   46) = (   0.1818182   0.2500000  -0.2857143), wk =   0.0129870
        k(   47) = (   0.1818182   0.2500000  -0.1428571), wk =   0.0129870
        k(   48) = (   0.1818182  -0.5000000  -0.0000000), wk =   0.0064935
        k(   49) = (   0.1818182  -0.5000000   0.1428571), wk =   0.0064935
        k(   50) = (   0.1818182  -0.5000000   0.2857143), wk =   0.0064935
        k(   51) = (   0.1818182  -0.5000000   0.4285714), wk =   0.0064935
        k(   52) = (   0.1818182  -0.5000000  -0.4285714), wk =   0.0064935
        k(   53) = (   0.1818182  -0.5000000  -0.2857143), wk =   0.0064935
        k(   54) = (   0.1818182  -0.5000000  -0.1428571), wk =   0.0064935
        k(   55) = (   0.2727273   0.0000000   0.0000000), wk =   0.0064935
        k(   56) = (   0.2727273   0.0000000   0.1428571), wk =   0.0064935
        k(   57) = (   0.2727273   0.0000000   0.2857143), wk =   0.0064935
        k(   58) = (   0.2727273   0.0000000   0.4285714), wk =   0.0064935
        k(   59) = (   0.2727273   0.0000000  -0.4285714), wk =   0.0064935
        k(   60) = (   0.2727273   0.0000000  -0.2857143), wk =   0.0064935
        k(   61) = (   0.2727273   0.0000000  -0.1428571), wk =   0.0064935
        k(   62) = (   0.2727273   0.2500000   0.0000000), wk =   0.0129870
        k(   63) = (   0.2727273   0.2500000   0.1428571), wk =   0.0129870
        k(   64) = (   0.2727273   0.2500000   0.2857143), wk =   0.0129870
        k(   65) = (   0.2727273   0.2500000   0.4285714), wk =   0.0129870
        k(   66) = (   0.2727273   0.2500000  -0.4285714), wk =   0.0129870
        k(   67) = (   0.2727273   0.2500000  -0.2857143), wk =   0.0129870
        k(   68) = (   0.2727273   0.2500000  -0.1428571), wk =   0.0129870
        k(   69) = (   0.2727273  -0.5000000   0.0000000), wk =   0.0064935
        k(   70) = (   0.2727273  -0.5000000   0.1428571), wk =   0.0064935
        k(   71) = (   0.2727273  -0.5000000   0.2857143), wk =   0.0064935
        k(   72) = (   0.2727273  -0.5000000   0.4285714), wk =   0.0064935
        k(   73) = (   0.2727273  -0.5000000  -0.4285714), wk =   0.0064935
        k(   74) = (   0.2727273  -0.5000000  -0.2857143), wk =   0.0064935
        k(   75) = (   0.2727273  -0.5000000  -0.1428571), wk =   0.0064935
        k(   76) = (   0.3636364   0.0000000  -0.0000000), wk =   0.0064935
        k(   77) = (   0.3636364   0.0000000   0.1428571), wk =   0.0064935
        k(   78) = (   0.3636364   0.0000000   0.2857143), wk =   0.0064935
        k(   79) = (   0.3636364   0.0000000   0.4285714), wk =   0.0064935
        k(   80) = (   0.3636364   0.0000000  -0.4285714), wk =   0.0064935
        k(   81) = (   0.3636364   0.0000000  -0.2857143), wk =   0.0064935
        k(   82) = (   0.3636364   0.0000000  -0.1428571), wk =   0.0064935
        k(   83) = (   0.3636364   0.2500000  -0.0000000), wk =   0.0129870
        k(   84) = (   0.3636364   0.2500000   0.1428571), wk =   0.0129870
        k(   85) = (   0.3636364   0.2500000   0.2857143), wk =   0.0129870
        k(   86) = (   0.3636364   0.2500000   0.4285714), wk =   0.0129870
        k(   87) = (   0.3636364   0.2500000  -0.4285714), wk =   0.0129870
        k(   88) = (   0.3636364   0.2500000  -0.2857143), wk =   0.0129870
        k(   89) = (   0.3636364   0.2500000  -0.1428571), wk =   0.0129870
        k(   90) = (   0.3636364  -0.5000000  -0.0000000), wk =   0.0064935
        k(   91) = (   0.3636364  -0.5000000   0.1428571), wk =   0.0064935
        k(   92) = (   0.3636364  -0.5000000   0.2857143), wk =   0.0064935
        k(   93) = (   0.3636364  -0.5000000   0.4285714), wk =   0.0064935
        k(   94) = (   0.3636364  -0.5000000  -0.4285714), wk =   0.0064935
        k(   95) = (   0.3636364  -0.5000000  -0.2857143), wk =   0.0064935
        k(   96) = (   0.3636364  -0.5000000  -0.1428571), wk =   0.0064935
        k(   97) = (   0.4545455   0.0000000  -0.0000000), wk =   0.0064935
        k(   98) = (   0.4545455   0.0000000   0.1428571), wk =   0.0064935
        k(   99) = (   0.4545455   0.0000000   0.2857143), wk =   0.0064935
        k(  100) = (   0.4545455   0.0000000   0.4285714), wk =   0.0064935
        k(  101) = (   0.4545455   0.0000000  -0.4285714), wk =   0.0064935
        k(  102) = (   0.4545455   0.0000000  -0.2857143), wk =   0.0064935
        k(  103) = (   0.4545455   0.0000000  -0.1428571), wk =   0.0064935
        k(  104) = (   0.4545455   0.2500000  -0.0000000), wk =   0.0129870
        k(  105) = (   0.4545455   0.2500000   0.1428571), wk =   0.0129870
        k(  106) = (   0.4545455   0.2500000   0.2857143), wk =   0.0129870
        k(  107) = (   0.4545455   0.2500000   0.4285714), wk =   0.0129870
        k(  108) = (   0.4545455   0.2500000  -0.4285714), wk =   0.0129870
        k(  109) = (   0.4545455   0.2500000  -0.2857143), wk =   0.0129870
        k(  110) = (   0.4545455   0.2500000  -0.1428571), wk =   0.0129870
        k(  111) = (   0.4545455  -0.5000000  -0.0000000), wk =   0.0064935
        k(  112) = (   0.4545455  -0.5000000   0.1428571), wk =   0.0064935
        k(  113) = (   0.4545455  -0.5000000   0.2857143), wk =   0.0064935
        k(  114) = (   0.4545455  -0.5000000   0.4285714), wk =   0.0064935
        k(  115) = (   0.4545455  -0.5000000  -0.4285714), wk =   0.0064935
        k(  116) = (   0.4545455  -0.5000000  -0.2857143), wk =   0.0064935
        k(  117) = (   0.4545455  -0.5000000  -0.1428571), wk =   0.0064935

     Dense  grid:   288705 G-vectors     FFT dimensions: (  50, 150,  90)

     Smooth grid:   102081 G-vectors     FFT dimensions: (  36, 108,  60)

     Dynamical RAM for                 wfc:       8.96 MB

     Dynamical RAM for     wfc (w. buffer):    2105.23 MB

     Dynamical RAM for           str. fact:       8.81 MB

     Dynamical RAM for           local pot:       0.00 MB

     Dynamical RAM for          nlocal pot:      26.49 MB

     Dynamical RAM for                qrad:       3.21 MB

     Dynamical RAM for          rho,v,vnew:      57.33 MB

     Dynamical RAM for               rhoin:      19.11 MB

     Dynamical RAM for            rho*nmix:     140.97 MB

     Dynamical RAM for           G-vectors:      17.30 MB

     Dynamical RAM for          h,s,v(r/c):       0.39 MB

     Dynamical RAM for          <psi|beta>:       0.10 MB

     Dynamical RAM for                 psi:      17.92 MB

     Dynamical RAM for                hpsi:      17.92 MB

     Dynamical RAM for                spsi:      17.92 MB

     Dynamical RAM for      wfcinit/wfcrot:      18.75 MB

     Dynamical RAM for           addusdens:     859.03 MB

     Dynamical RAM for          addusforce:     920.77 MB

     Dynamical RAM for         addusstress:     892.07 MB

     Estimated static dynamical RAM per process >       2.23 GB

     Estimated max dynamical RAM per process >       3.26 GB

     Check: negative core charge=   -0.000002
     Generating pointlists ...
     new r_m :   0.3138 (alat units)  2.3670 (a.u.) for type    1
     new r_m :   0.2495 (alat units)  1.8815 (a.u.) for type    2

     Initial potential from superposition of free atoms

     starting charge      76.0000, renormalised to      76.0000

     negative rho (up, down):  3.432E-02 2.808E-02
     Starting wfcs are   48 randomized atomic wfcs
     Checking if some PAW data can be deallocated... 

     total cpu time spent up to now is       12.3 secs

     Self-consistent Calculation
[tb_dev] Currently allocated     8.88E+00 Mbytes, locked:    0 /  12
[tb_pin] Currently allocated     0.00E+00 Mbytes, locked:    0 /   0

     iteration #  1     ecut=    50.00 Ry     beta= 0.40
     Davidson diagonalization with overlap

---- Real-time Memory Report at c_bands before calling an iterative solver
          3325 MiB given to the printing process from OS
         -1152 MiB allocation reported by mallinfo(arena+hblkhd)
         55978 MiB available memory on the node where the printing process lives
     GPU memory used/free/total (MiB): 2058 / 14222 / 16280
------------------
     ethr =  1.00E-02,  avg # of iterations =  1.0

     negative rho (up, down):  3.313E-02 2.735E-02

     total cpu time spent up to now is       22.7 secs

     total energy              =    -456.77429368 Ry
     estimated scf accuracy    <       3.25800270 Ry

     total magnetization       =    11.81 Bohr mag/cell
     absolute magnetization    =    11.83 Bohr mag/cell
[tb_dev] Currently allocated     8.88E+00 Mbytes, locked:    0 /  10
[tb_pin] Currently allocated     0.00E+00 Mbytes, locked:    0 /   0

     iteration #  2     ecut=    50.00 Ry     beta= 0.40
     Davidson diagonalization with overlap

---- Real-time Memory Report at c_bands before calling an iterative solver
          3577 MiB given to the printing process from OS
         -1075 MiB allocation reported by mallinfo(arena+hblkhd)
         55902 MiB available memory on the node where the printing process lives
     GPU memory used/free/total (MiB): 3056 / 13224 / 16280
------------------
     ethr =  4.29E-03,  avg # of iterations =  3.9

     negative rho (up, down):  3.378E-02 2.864E-02

     total cpu time spent up to now is       39.1 secs

     total energy              =    -458.38106006 Ry
     estimated scf accuracy    <      11.41106767 Ry

     total magnetization       =     9.07 Bohr mag/cell
     absolute magnetization    =     9.19 Bohr mag/cell
[tb_dev] Currently allocated     8.88E+00 Mbytes, locked:    0 /  10
[tb_pin] Currently allocated     0.00E+00 Mbytes, locked:    0 /   0

     iteration #  3     ecut=    50.00 Ry     beta= 0.40
     Davidson diagonalization with overlap

---- Real-time Memory Report at c_bands before calling an iterative solver
          3751 MiB given to the printing process from OS
         -1052 MiB allocation reported by mallinfo(arena+hblkhd)
         55876 MiB available memory on the node where the printing process lives
     GPU memory used/free/total (MiB): 3160 / 13120 / 16280
------------------
     ethr =  4.29E-03,  avg # of iterations =  3.6

     negative rho (up, down):  3.387E-02 2.894E-02

     total cpu time spent up to now is       53.9 secs

     total energy              =    -458.36423725 Ry
     estimated scf accuracy    <      22.35642255 Ry

     total magnetization       =     4.00 Bohr mag/cell
     absolute magnetization    =     4.52 Bohr mag/cell
[tb_dev] Currently allocated     8.88E+00 Mbytes, locked:    0 /  10
[tb_pin] Currently allocated     0.00E+00 Mbytes, locked:    0 /   0

     iteration #  4     ecut=    50.00 Ry     beta= 0.40
     Davidson diagonalization with overlap

---- Real-time Memory Report at c_bands before calling an iterative solver
          3849 MiB given to the printing process from OS
         -1026 MiB allocation reported by mallinfo(arena+hblkhd)
         55850 MiB available memory on the node where the printing process lives
     GPU memory used/free/total (MiB): 3310 / 12970 / 16280
------------------
     ethr =  4.29E-03,  avg # of iterations =  1.0

     negative rho (up, down):  3.384E-02 2.899E-02

     total cpu time spent up to now is       64.7 secs

     total energy              =    -458.84468431 Ry
     estimated scf accuracy    <       3.20941921 Ry

     total magnetization       =    13.04 Bohr mag/cell
     absolute magnetization    =    13.07 Bohr mag/cell
[tb_dev] Currently allocated     8.88E+00 Mbytes, locked:    0 /  10
[tb_pin] Currently allocated     0.00E+00 Mbytes, locked:    0 /   0

     iteration #  5     ecut=    50.00 Ry     beta= 0.40
     Davidson diagonalization with overlap

---- Real-time Memory Report at c_bands before calling an iterative solver
          3925 MiB given to the printing process from OS
         -1004 MiB allocation reported by mallinfo(arena+hblkhd)
         55830 MiB available memory on the node where the printing process lives
     GPU memory used/free/total (MiB): 3310 / 12970 / 16280
------------------
     ethr =  4.22E-03,  avg # of iterations =  1.0

     negative rho (up, down):  3.353E-02 2.884E-02

     total cpu time spent up to now is       75.6 secs

     total energy              =    -458.80932642 Ry
     estimated scf accuracy    <       2.82454832 Ry

     total magnetization       =    13.63 Bohr mag/cell
     absolute magnetization    =    13.66 Bohr mag/cell
[tb_dev] Currently allocated     8.88E+00 Mbytes, locked:    0 /  10
[tb_pin] Currently allocated     0.00E+00 Mbytes, locked:    0 /   0

     iteration #  6     ecut=    50.00 Ry     beta= 0.40
     Davidson diagonalization with overlap

---- Real-time Memory Report at c_bands before calling an iterative solver
          4003 MiB given to the printing process from OS
          -981 MiB allocation reported by mallinfo(arena+hblkhd)
         55806 MiB available memory on the node where the printing process lives
     GPU memory used/free/total (MiB): 3310 / 12970 / 16280
------------------
     ethr =  3.72E-03,  avg # of iterations =  1.0

     negative rho (up, down):  3.353E-02 2.884E-02

     total cpu time spent up to now is       86.5 secs

     total energy              =    -458.82367070 Ry
     estimated scf accuracy    <       2.32333105 Ry

     total magnetization       =    15.30 Bohr mag/cell
     absolute magnetization    =    15.31 Bohr mag/cell
[tb_dev] Currently allocated     8.88E+00 Mbytes, locked:    0 /  10
[tb_pin] Currently allocated     0.00E+00 Mbytes, locked:    0 /   0

     iteration #  7     ecut=    50.00 Ry     beta= 0.40
     Davidson diagonalization with overlap

---- Real-time Memory Report at c_bands before calling an iterative solver
          4032 MiB given to the printing process from OS
          -964 MiB allocation reported by mallinfo(arena+hblkhd)
         55793 MiB available memory on the node where the printing process lives
     GPU memory used/free/total (MiB): 3310 / 12970 / 16280
------------------
     ethr =  3.06E-03,  avg # of iterations =  1.0

     negative rho (up, down):  3.361E-02 2.894E-02

     total cpu time spent up to now is       97.4 secs

     total energy              =    -458.81454505 Ry
     estimated scf accuracy    <       2.31119478 Ry

     total magnetization       =    15.32 Bohr mag/cell
     absolute magnetization    =    15.34 Bohr mag/cell
[tb_dev] Currently allocated     8.88E+00 Mbytes, locked:    0 /  10
[tb_pin] Currently allocated     0.00E+00 Mbytes, locked:    0 /   0

     iteration #  8     ecut=    50.00 Ry     beta= 0.40
     Davidson diagonalization with overlap

---- Real-time Memory Report at c_bands before calling an iterative solver
          4070 MiB given to the printing process from OS
          -938 MiB allocation reported by mallinfo(arena+hblkhd)
         55767 MiB available memory on the node where the printing process lives
     GPU memory used/free/total (MiB): 3310 / 12970 / 16280
------------------
     ethr =  3.04E-03,  avg # of iterations =  1.0

     negative rho (up, down):  3.383E-02 2.936E-02

     total cpu time spent up to now is      108.3 secs

     total energy              =    -458.73959769 Ry
     estimated scf accuracy    <       2.27475313 Ry

     total magnetization       =    14.94 Bohr mag/cell
     absolute magnetization    =    14.96 Bohr mag/cell
[tb_dev] Currently allocated     8.88E+00 Mbytes, locked:    0 /  10
[tb_pin] Currently allocated     0.00E+00 Mbytes, locked:    0 /   0

     iteration #  9     ecut=    50.00 Ry     beta= 0.40
     Davidson diagonalization with overlap

---- Real-time Memory Report at c_bands before calling an iterative solver
          4107 MiB given to the printing process from OS
          -911 MiB allocation reported by mallinfo(arena+hblkhd)
         55739 MiB available memory on the node where the printing process lives
     GPU memory used/free/total (MiB): 3310 / 12970 / 16280
------------------
     ethr =  2.99E-03,  avg # of iterations =  1.0

     negative rho (up, down):  3.427E-02 3.011E-02

     total cpu time spent up to now is      119.2 secs

     total energy              =    -458.62947458 Ry
     estimated scf accuracy    <       1.87471918 Ry

     total magnetization       =    14.57 Bohr mag/cell
     absolute magnetization    =    14.59 Bohr mag/cell
[tb_dev] Currently allocated     8.88E+00 Mbytes, locked:    0 /  10
[tb_pin] Currently allocated     0.00E+00 Mbytes, locked:    0 /   0

     iteration # 10     ecut=    50.00 Ry     beta= 0.40
     Davidson diagonalization with overlap

---- Real-time Memory Report at c_bands before calling an iterative solver
          4125 MiB given to the printing process from OS
          -893 MiB allocation reported by mallinfo(arena+hblkhd)
         55723 MiB available memory on the node where the printing process lives
     GPU memory used/free/total (MiB): 3310 / 12970 / 16280
------------------
     ethr =  2.47E-03,  avg # of iterations =  1.0

     negative rho (up, down):  5.634E-02 3.474E-02

     total cpu time spent up to now is      130.0 secs

     total energy              =    -457.59973330 Ry
     estimated scf accuracy    <       1.25430722 Ry

     total magnetization       =    13.89 Bohr mag/cell
     absolute magnetization    =    13.93 Bohr mag/cell
[tb_dev] Currently allocated     8.88E+00 Mbytes, locked:    0 /  10
[tb_pin] Currently allocated     0.00E+00 Mbytes, locked:    0 /   0

     iteration # 11     ecut=    50.00 Ry     beta= 0.40
     Davidson diagonalization with overlap

---- Real-time Memory Report at c_bands before calling an iterative solver
          4141 MiB given to the printing process from OS
          -878 MiB allocation reported by mallinfo(arena+hblkhd)
         55707 MiB available memory on the node where the printing process lives
     GPU memory used/free/total (MiB): 3310 / 12970 / 16280
------------------
     ethr =  1.65E-03,  avg # of iterations =  4.0

     negative rho (up, down):  3.759E-02 3.385E-02

     total cpu time spent up to now is      145.5 secs

     total energy              =    -458.63174615 Ry
     estimated scf accuracy    <       7.84409184 Ry

     total magnetization       =     2.90 Bohr mag/cell
     absolute magnetization    =    15.56 Bohr mag/cell
[tb_dev] Currently allocated     8.88E+00 Mbytes, locked:    0 /  10
[tb_pin] Currently allocated     0.00E+00 Mbytes, locked:    0 /   0

     iteration # 12     ecut=    50.00 Ry     beta= 0.40
     Davidson diagonalization with overlap

---- Real-time Memory Report at c_bands before calling an iterative solver
          4158 MiB given to the printing process from OS
          -864 MiB allocation reported by mallinfo(arena+hblkhd)
         55679 MiB available memory on the node where the printing process lives
     GPU memory used/free/total (MiB): 3446 / 12834 / 16280
------------------
     ethr =  1.65E-03,  avg # of iterations =  1.0

     negative rho (up, down):  3.749E-02 3.381E-02

     total cpu time spent up to now is      156.4 secs

     total energy              =    -458.65851428 Ry
     estimated scf accuracy    <       2.51564710 Ry

     total magnetization       =     4.43 Bohr mag/cell
     absolute magnetization    =    15.12 Bohr mag/cell
[tb_dev] Currently allocated     8.88E+00 Mbytes, locked:    0 /  10
[tb_pin] Currently allocated     0.00E+00 Mbytes, locked:    0 /   0

     iteration # 13     ecut=    50.00 Ry     beta= 0.40
     Davidson diagonalization with overlap

---- Real-time Memory Report at c_bands before calling an iterative solver
          4176 MiB given to the printing process from OS
          -849 MiB allocation reported by mallinfo(arena+hblkhd)
         55667 MiB available memory on the node where the printing process lives
     GPU memory used/free/total (MiB): 3446 / 12834 / 16280
------------------
     ethr =  1.65E-03,  avg # of iterations =  1.0

     negative rho (up, down):  3.554E-02 3.213E-02

     total cpu time spent up to now is      167.2 secs

     total energy              =    -458.50888812 Ry
     estimated scf accuracy    <       1.74950705 Ry

     total magnetization       =     4.45 Bohr mag/cell
     absolute magnetization    =    14.88 Bohr mag/cell
[tb_dev] Currently allocated     8.88E+00 Mbytes, locked:    0 /  10
[tb_pin] Currently allocated     0.00E+00 Mbytes, locked:    0 /   0

     iteration # 14     ecut=    50.00 Ry     beta= 0.40
     Davidson diagonalization with overlap

---- Real-time Memory Report at c_bands before calling an iterative solver
          4184 MiB given to the printing process from OS
          -834 MiB allocation reported by mallinfo(arena+hblkhd)
         55656 MiB available memory on the node where the printing process lives
     GPU memory used/free/total (MiB): 3446 / 12834 / 16280
------------------
     ethr =  1.65E-03,  avg # of iterations =  1.0

     negative rho (up, down):  3.528E-02 3.163E-02

     total cpu time spent up to now is      178.0 secs

     total energy              =    -458.62130425 Ry
     estimated scf accuracy    <       2.00921989 Ry

     total magnetization       =     8.95 Bohr mag/cell
     absolute magnetization    =    13.78 Bohr mag/cell
[tb_dev] Currently allocated     8.88E+00 Mbytes, locked:    0 /  10
[tb_pin] Currently allocated     0.00E+00 Mbytes, locked:    0 /   0

     iteration # 15     ecut=    50.00 Ry     beta= 0.40
     Davidson diagonalization with overlap

---- Real-time Memory Report at c_bands before calling an iterative solver
          4199 MiB given to the printing process from OS
          -819 MiB allocation reported by mallinfo(arena+hblkhd)
         55640 MiB available memory on the node where the printing process lives
     GPU memory used/free/total (MiB): 3446 / 12834 / 16280
------------------
     ethr =  1.65E-03,  avg # of iterations =  1.1

     negative rho (up, down):  3.396E-02 2.980E-02

     total cpu time spent up to now is      188.9 secs

     total energy              =    -458.67616421 Ry
     estimated scf accuracy    <       2.11283280 Ry

     total magnetization       =     8.83 Bohr mag/cell
     absolute magnetization    =    13.44 Bohr mag/cell
[tb_dev] Currently allocated     8.88E+00 Mbytes, locked:    0 /  10
[tb_pin] Currently allocated     0.00E+00 Mbytes, locked:    0 /   0

     iteration # 16     ecut=    50.00 Ry     beta= 0.40
     Davidson diagonalization with overlap

---- Real-time Memory Report at c_bands before calling an iterative solver
          4217 MiB given to the printing process from OS
          -805 MiB allocation reported by mallinfo(arena+hblkhd)
         55627 MiB available memory on the node where the printing process lives
     GPU memory used/free/total (MiB): 3446 / 12834 / 16280
------------------
     ethr =  1.65E-03,  avg # of iterations =  2.8

     negative rho (up, down):  3.398E-02 2.990E-02

     total cpu time spent up to now is      202.2 secs

     total energy              =    -458.85678669 Ry
     estimated scf accuracy    <       2.70917058 Ry

     total magnetization       =    11.92 Bohr mag/cell
     absolute magnetization    =    13.39 Bohr mag/cell
[tb_dev] Currently allocated     8.88E+00 Mbytes, locked:    0 /  10
[tb_pin] Currently allocated     0.00E+00 Mbytes, locked:    0 /   0

     iteration # 17     ecut=    50.00 Ry     beta= 0.40
     Davidson diagonalization with overlap

---- Real-time Memory Report at c_bands before calling an iterative solver
          4232 MiB given to the printing process from OS
          -790 MiB allocation reported by mallinfo(arena+hblkhd)
         55612 MiB available memory on the node where the printing process lives
     GPU memory used/free/total (MiB): 3446 / 12834 / 16280
------------------
     ethr =  1.65E-03,  avg # of iterations =  1.2

     negative rho (up, down):  3.372E-02 3.000E-02

     total cpu time spent up to now is      213.3 secs

     total energy              =    -458.82617461 Ry
     estimated scf accuracy    <       2.65701946 Ry

     total magnetization       =    11.37 Bohr mag/cell
     absolute magnetization    =    13.54 Bohr mag/cell
[tb_dev] Currently allocated     8.88E+00 Mbytes, locked:    0 /  10
[tb_pin] Currently allocated     0.00E+00 Mbytes, locked:    0 /   0

     iteration # 18     ecut=    50.00 Ry     beta= 0.40
     Davidson diagonalization with overlap

---- Real-time Memory Report at c_bands before calling an iterative solver
          4246 MiB given to the printing process from OS
          -775 MiB allocation reported by mallinfo(arena+hblkhd)
         55599 MiB available memory on the node where the printing process lives
     GPU memory used/free/total (MiB): 3446 / 12834 / 16280
------------------
     ethr =  1.65E-03,  avg # of iterations =  1.0

     negative rho (up, down):  3.347E-02 3.019E-02

     total cpu time spent up to now is      224.2 secs

     total energy              =    -458.81682233 Ry
     estimated scf accuracy    <       2.50102785 Ry

     total magnetization       =     8.34 Bohr mag/cell
     absolute magnetization    =    14.47 Bohr mag/cell
[tb_dev] Currently allocated     8.88E+00 Mbytes, locked:    0 /  10
[tb_pin] Currently allocated     0.00E+00 Mbytes, locked:    0 /   0

     iteration # 19     ecut=    50.00 Ry     beta= 0.40
     Davidson diagonalization with overlap

---- Real-time Memory Report at c_bands before calling an iterative solver
          4261 MiB given to the printing process from OS
          -760 MiB allocation reported by mallinfo(arena+hblkhd)
         55586 MiB available memory on the node where the printing process lives
     GPU memory used/free/total (MiB): 3446 / 12834 / 16280
------------------
     ethr =  1.65E-03,  avg # of iterations =  1.0

     negative rho (up, down):  3.312E-02 2.998E-02

     total cpu time spent up to now is      235.1 secs

     total energy              =    -458.87423696 Ry
     estimated scf accuracy    <       2.66045160 Ry

     total magnetization       =     8.89 Bohr mag/cell
     absolute magnetization    =    14.80 Bohr mag/cell
[tb_dev] Currently allocated     8.88E+00 Mbytes, locked:    0 /  10
[tb_pin] Currently allocated     0.00E+00 Mbytes, locked:    0 /   0

     iteration # 20     ecut=    50.00 Ry     beta= 0.40
     Davidson diagonalization with overlap

---- Real-time Memory Report at c_bands before calling an iterative solver
          4282 MiB given to the printing process from OS
          -746 MiB allocation reported by mallinfo(arena+hblkhd)
         55568 MiB available memory on the node where the printing process lives
     GPU memory used/free/total (MiB): 3446 / 12834 / 16280
------------------
     ethr =  1.65E-03,  avg # of iterations =  1.0

     negative rho (up, down):  3.302E-02 2.989E-02

     total cpu time spent up to now is      246.0 secs

     total energy              =    -458.87197069 Ry
     estimated scf accuracy    <       3.00445409 Ry

     total magnetization       =     8.76 Bohr mag/cell
     absolute magnetization    =    14.76 Bohr mag/cell
[tb_dev] Currently allocated     8.88E+00 Mbytes, locked:    0 /  10
[tb_pin] Currently allocated     0.00E+00 Mbytes, locked:    0 /   0

     iteration # 21     ecut=    50.00 Ry     beta= 0.40
     Davidson diagonalization with overlap

---- Real-time Memory Report at c_bands before calling an iterative solver
          4298 MiB given to the printing process from OS
          -731 MiB allocation reported by mallinfo(arena+hblkhd)
         55556 MiB available memory on the node where the printing process lives
     GPU memory used/free/total (MiB): 3446 / 12834 / 16280
------------------
     ethr =  1.65E-03,  avg # of iterations =  1.0

     negative rho (up, down):  3.302E-02 2.989E-02

     total cpu time spent up to now is      256.8 secs

     total energy              =    -458.85761417 Ry
     estimated scf accuracy    <       2.97141371 Ry

     total magnetization       =     8.49 Bohr mag/cell
     absolute magnetization    =    14.69 Bohr mag/cell
[tb_dev] Currently allocated     8.88E+00 Mbytes, locked:    0 /  10
[tb_pin] Currently allocated     0.00E+00 Mbytes, locked:    0 /   0

     iteration # 22     ecut=    50.00 Ry     beta= 0.40
     Davidson diagonalization with overlap

---- Real-time Memory Report at c_bands before calling an iterative solver
          4312 MiB given to the printing process from OS
          -716 MiB allocation reported by mallinfo(arena+hblkhd)
         55541 MiB available memory on the node where the printing process lives
     GPU memory used/free/total (MiB): 3446 / 12834 / 16280
------------------
     ethr =  1.65E-03,  avg # of iterations =  1.0

     negative rho (up, down):  3.297E-02 3.008E-02

     total cpu time spent up to now is      267.7 secs

     total energy              =    -458.55918923 Ry
     estimated scf accuracy    <       2.73476169 Ry

     total magnetization       =     8.40 Bohr mag/cell
     absolute magnetization    =    14.76 Bohr mag/cell
[tb_dev] Currently allocated     8.88E+00 Mbytes, locked:    0 /  10
[tb_pin] Currently allocated     0.00E+00 Mbytes, locked:    0 /   0

     iteration # 23     ecut=    50.00 Ry     beta= 0.40
     Davidson diagonalization with overlap

---- Real-time Memory Report at c_bands before calling an iterative solver
          4326 MiB given to the printing process from OS
          -701 MiB allocation reported by mallinfo(arena+hblkhd)
         55526 MiB available memory on the node where the printing process lives
     GPU memory used/free/total (MiB): 3446 / 12834 / 16280
------------------
     ethr =  1.65E-03,  avg # of iterations =  2.2

     negative rho (up, down):  3.282E-02 2.986E-02

     total cpu time spent up to now is      280.0 secs

     total energy              =    -458.63114077 Ry
     estimated scf accuracy    <       0.60866599 Ry

     total magnetization       =     4.07 Bohr mag/cell
     absolute magnetization    =    16.75 Bohr mag/cell
[tb_dev] Currently allocated     8.88E+00 Mbytes, locked:    0 /  10
[tb_pin] Currently allocated     0.00E+00 Mbytes, locked:    0 /   0

     iteration # 24     ecut=    50.00 Ry     beta= 0.40
     Davidson diagonalization with overlap

---- Real-time Memory Report at c_bands before calling an iterative solver
          4344 MiB given to the printing process from OS
          -687 MiB allocation reported by mallinfo(arena+hblkhd)
         55511 MiB available memory on the node where the printing process lives
     GPU memory used/free/total (MiB): 3446 / 12834 / 16280
------------------
     ethr =  8.01E-04,  avg # of iterations =  1.4

     negative rho (up, down):  3.297E-02 2.971E-02

     total cpu time spent up to now is      291.4 secs

     total energy              =    -458.67469415 Ry
     estimated scf accuracy    <       0.54214734 Ry

     total magnetization       =     6.78 Bohr mag/cell
     absolute magnetization    =    14.75 Bohr mag/cell
[tb_dev] Currently allocated     8.88E+00 Mbytes, locked:    0 /  10
[tb_pin] Currently allocated     0.00E+00 Mbytes, locked:    0 /   0

     iteration # 25     ecut=    50.00 Ry     beta= 0.40
     Davidson diagonalization with overlap

---- Real-time Memory Report at c_bands before calling an iterative solver
          4359 MiB given to the printing process from OS
          -641 MiB allocation reported by mallinfo(arena+hblkhd)
         55486 MiB available memory on the node where the printing process lives
     GPU memory used/free/total (MiB): 3446 / 12834 / 16280
------------------
     ethr =  7.13E-04,  avg # of iterations =  1.0

     negative rho (up, down):  3.289E-02 2.959E-02

     total cpu time spent up to now is      302.4 secs

     total energy              =    -458.70153059 Ry
     estimated scf accuracy    <       0.10561296 Ry

     total magnetization       =     7.33 Bohr mag/cell
     absolute magnetization    =    14.46 Bohr mag/cell
[tb_dev] Currently allocated     8.88E+00 Mbytes, locked:    0 /  10
[tb_pin] Currently allocated     0.00E+00 Mbytes, locked:    0 /   0

     iteration # 26     ecut=    50.00 Ry     beta= 0.40
     Davidson diagonalization with overlap

---- Real-time Memory Report at c_bands before calling an iterative solver
          4378 MiB given to the printing process from OS
          -626 MiB allocation reported by mallinfo(arena+hblkhd)
         55468 MiB available memory on the node where the printing process lives
     GPU memory used/free/total (MiB): 3446 / 12834 / 16280
------------------
     ethr =  1.39E-04,  avg # of iterations =  1.2

     negative rho (up, down):  3.300E-02 2.954E-02

     total cpu time spent up to now is      313.4 secs

     total energy              =    -458.71503111 Ry
     estimated scf accuracy    <       0.02462614 Ry

     total magnetization       =     8.48 Bohr mag/cell
     absolute magnetization    =    14.50 Bohr mag/cell
[tb_dev] Currently allocated     8.88E+00 Mbytes, locked:    0 /  10
[tb_pin] Currently allocated     0.00E+00 Mbytes, locked:    0 /   0

     iteration # 27     ecut=    50.00 Ry     beta= 0.40
     Davidson diagonalization with overlap

---- Real-time Memory Report at c_bands before calling an iterative solver
          4395 MiB given to the printing process from OS
          -611 MiB allocation reported by mallinfo(arena+hblkhd)
         55451 MiB available memory on the node where the printing process lives
     GPU memory used/free/total (MiB): 3446 / 12834 / 16280
------------------
     ethr =  3.24E-05,  avg # of iterations =  4.6

     negative rho (up, down):  3.308E-02 2.956E-02

     total cpu time spent up to now is      329.3 secs

     total energy              =    -458.72392293 Ry
     estimated scf accuracy    <       0.00809296 Ry

     total magnetization       =     8.33 Bohr mag/cell
     absolute magnetization    =    14.59 Bohr mag/cell
[tb_dev] Currently allocated     8.88E+00 Mbytes, locked:    0 /  10
[tb_pin] Currently allocated     0.00E+00 Mbytes, locked:    0 /   0

     iteration # 28     ecut=    50.00 Ry     beta= 0.40
     Davidson diagonalization with overlap

---- Real-time Memory Report at c_bands before calling an iterative solver
          4409 MiB given to the printing process from OS
          -597 MiB allocation reported by mallinfo(arena+hblkhd)
         55437 MiB available memory on the node where the printing process lives
     GPU memory used/free/total (MiB): 3446 / 12834 / 16280
------------------
     ethr =  1.06E-05,  avg # of iterations =  4.8

     negative rho (up, down):  3.312E-02 2.955E-02

     total cpu time spent up to now is      346.2 secs

     total energy              =    -458.72797075 Ry
     estimated scf accuracy    <       0.00897469 Ry

     total magnetization       =     8.02 Bohr mag/cell
     absolute magnetization    =    14.80 Bohr mag/cell
[tb_dev] Currently allocated     8.88E+00 Mbytes, locked:    0 /  10
[tb_pin] Currently allocated     0.00E+00 Mbytes, locked:    0 /   0

     iteration # 29     ecut=    50.00 Ry     beta= 0.40
     Davidson diagonalization with overlap

---- Real-time Memory Report at c_bands before calling an iterative solver
          4424 MiB given to the printing process from OS
          -582 MiB allocation reported by mallinfo(arena+hblkhd)
         55413 MiB available memory on the node where the printing process lives
     GPU memory used/free/total (MiB): 3446 / 12834 / 16280
------------------
     ethr =  1.06E-05,  avg # of iterations =  1.8

     negative rho (up, down):  3.307E-02 2.952E-02

     total cpu time spent up to now is      357.9 secs

     total energy              =    -458.72691767 Ry
     estimated scf accuracy    <       0.00760400 Ry

     total magnetization       =     7.97 Bohr mag/cell
     absolute magnetization    =    14.91 Bohr mag/cell
[tb_dev] Currently allocated     8.88E+00 Mbytes, locked:    0 /  10
[tb_pin] Currently allocated     0.00E+00 Mbytes, locked:    0 /   0

     iteration # 30     ecut=    50.00 Ry     beta= 0.40
     Davidson diagonalization with overlap

---- Real-time Memory Report at c_bands before calling an iterative solver
          4439 MiB given to the printing process from OS
          -567 MiB allocation reported by mallinfo(arena+hblkhd)
         55402 MiB available memory on the node where the printing process lives
     GPU memory used/free/total (MiB): 3446 / 12834 / 16280
------------------
     ethr =  1.00E-05,  avg # of iterations =  1.0

     negative rho (up, down):  3.310E-02 2.956E-02

     total cpu time spent up to now is      368.8 secs

     total energy              =    -458.72630319 Ry
     estimated scf accuracy    <       0.00799275 Ry

     total magnetization       =     8.06 Bohr mag/cell
     absolute magnetization    =    14.86 Bohr mag/cell
[tb_dev] Currently allocated     8.88E+00 Mbytes, locked:    0 /  10
[tb_pin] Currently allocated     0.00E+00 Mbytes, locked:    0 /   0

     iteration # 31     ecut=    50.00 Ry     beta= 0.40
     Davidson diagonalization with overlap

---- Real-time Memory Report at c_bands before calling an iterative solver
          4458 MiB given to the printing process from OS
          -552 MiB allocation reported by mallinfo(arena+hblkhd)
         55389 MiB available memory on the node where the printing process lives
     GPU memory used/free/total (MiB): 3446 / 12834 / 16280
------------------
     ethr =  1.00E-05,  avg # of iterations =  1.0

     negative rho (up, down):  3.308E-02 2.956E-02

     total cpu time spent up to now is      379.7 secs

     total energy              =    -458.72503596 Ry
     estimated scf accuracy    <       0.00966572 Ry

     total magnetization       =     7.99 Bohr mag/cell
     absolute magnetization    =    14.80 Bohr mag/cell
[tb_dev] Currently allocated     8.88E+00 Mbytes, locked:    0 /  10
[tb_pin] Currently allocated     0.00E+00 Mbytes, locked:    0 /   0

     iteration # 32     ecut=    50.00 Ry     beta= 0.40
     Davidson diagonalization with overlap

---- Real-time Memory Report at c_bands before calling an iterative solver
          4475 MiB given to the printing process from OS
          -538 MiB allocation reported by mallinfo(arena+hblkhd)
         55370 MiB available memory on the node where the printing process lives
     GPU memory used/free/total (MiB): 3446 / 12834 / 16280
------------------
     ethr =  1.00E-05,  avg # of iterations =  1.0

     negative rho (up, down):  3.320E-02 2.960E-02

     total cpu time spent up to now is      390.6 secs

     total energy              =    -458.72198822 Ry
     estimated scf accuracy    <       0.01127277 Ry

     total magnetization       =     8.04 Bohr mag/cell
     absolute magnetization    =    14.73 Bohr mag/cell
[tb_dev] Currently allocated     8.88E+00 Mbytes, locked:    0 /  10
[tb_pin] Currently allocated     0.00E+00 Mbytes, locked:    0 /   0

     iteration # 33     ecut=    50.00 Ry     beta= 0.40
     Davidson diagonalization with overlap

---- Real-time Memory Report at c_bands before calling an iterative solver
          4490 MiB given to the printing process from OS
          -523 MiB allocation reported by mallinfo(arena+hblkhd)
         55353 MiB available memory on the node where the printing process lives
     GPU memory used/free/total (MiB): 3446 / 12834 / 16280
------------------
     ethr =  1.00E-05,  avg # of iterations =  1.0

     negative rho (up, down):  3.320E-02 2.958E-02

     total cpu time spent up to now is      401.8 secs

     total energy              =    -458.70358060 Ry
     estimated scf accuracy    <       0.01146480 Ry

     total magnetization       =     8.63 Bohr mag/cell
     absolute magnetization    =    14.81 Bohr mag/cell
[tb_dev] Currently allocated     8.88E+00 Mbytes, locked:    0 /  10
[tb_pin] Currently allocated     0.00E+00 Mbytes, locked:    0 /   0

     iteration # 34     ecut=    50.00 Ry     beta= 0.40
     Davidson diagonalization with overlap

---- Real-time Memory Report at c_bands before calling an iterative solver
          4507 MiB given to the printing process from OS
          -508 MiB allocation reported by mallinfo(arena+hblkhd)
         55340 MiB available memory on the node where the printing process lives
     GPU memory used/free/total (MiB): 3446 / 12834 / 16280
------------------
     ethr =  1.00E-05,  avg # of iterations =  5.1

     negative rho (up, down):  3.320E-02 2.957E-02

     total cpu time spent up to now is      420.4 secs

     total energy              =    -458.71617996 Ry
     estimated scf accuracy    <       0.00467494 Ry

     total magnetization       =    10.03 Bohr mag/cell
     absolute magnetization    =    14.55 Bohr mag/cell
[tb_dev] Currently allocated     8.88E+00 Mbytes, locked:    0 /  10
[tb_pin] Currently allocated     0.00E+00 Mbytes, locked:    0 /   0

     iteration # 35     ecut=    50.00 Ry     beta= 0.40
     Davidson diagonalization with overlap

---- Real-time Memory Report at c_bands before calling an iterative solver
          4523 MiB given to the printing process from OS
          -493 MiB allocation reported by mallinfo(arena+hblkhd)
         55322 MiB available memory on the node where the printing process lives
     GPU memory used/free/total (MiB): 3446 / 12834 / 16280
------------------
     ethr =  6.15E-06,  avg # of iterations =  3.3

     negative rho (up, down):  3.319E-02 2.957E-02

     total cpu time spent up to now is      434.4 secs

     total energy              =    -458.71787406 Ry
     estimated scf accuracy    <       0.00411259 Ry

     total magnetization       =    11.02 Bohr mag/cell
     absolute magnetization    =    14.89 Bohr mag/cell
[tb_dev] Currently allocated     8.88E+00 Mbytes, locked:    0 /  10
[tb_pin] Currently allocated     0.00E+00 Mbytes, locked:    0 /   0

     iteration # 36     ecut=    50.00 Ry     beta= 0.40
     Davidson diagonalization with overlap

---- Real-time Memory Report at c_bands before calling an iterative solver
          4538 MiB given to the printing process from OS
          -479 MiB allocation reported by mallinfo(arena+hblkhd)
         55309 MiB available memory on the node where the printing process lives
     GPU memory used/free/total (MiB): 3446 / 12834 / 16280
------------------
     ethr =  5.41E-06,  avg # of iterations =  1.2

     negative rho (up, down):  3.315E-02 2.953E-02

     total cpu time spent up to now is      445.4 secs

     total energy              =    -458.71675153 Ry
     estimated scf accuracy    <       0.00167780 Ry

     total magnetization       =    10.75 Bohr mag/cell
     absolute magnetization    =    14.78 Bohr mag/cell
[tb_dev] Currently allocated     8.88E+00 Mbytes, locked:    0 /  10
[tb_pin] Currently allocated     0.00E+00 Mbytes, locked:    0 /   0

     iteration # 37     ecut=    50.00 Ry     beta= 0.40
     Davidson diagonalization with overlap

---- Real-time Memory Report at c_bands before calling an iterative solver
          4552 MiB given to the printing process from OS
          -464 MiB allocation reported by mallinfo(arena+hblkhd)
         55294 MiB available memory on the node where the printing process lives
     GPU memory used/free/total (MiB): 3446 / 12834 / 16280
------------------
     ethr =  2.21E-06,  avg # of iterations =  4.9

     negative rho (up, down):  3.314E-02 2.950E-02

     total cpu time spent up to now is      463.0 secs

     total energy              =    -458.71905664 Ry
     estimated scf accuracy    <       0.00242645 Ry

     total magnetization       =    10.15 Bohr mag/cell
     absolute magnetization    =    14.76 Bohr mag/cell
[tb_dev] Currently allocated     8.88E+00 Mbytes, locked:    0 /  10
[tb_pin] Currently allocated     0.00E+00 Mbytes, locked:    0 /   0

     iteration # 38     ecut=    50.00 Ry     beta= 0.40
     Davidson diagonalization with overlap

---- Real-time Memory Report at c_bands before calling an iterative solver
          4570 MiB given to the printing process from OS
          -449 MiB allocation reported by mallinfo(arena+hblkhd)
         55276 MiB available memory on the node where the printing process lives
     GPU memory used/free/total (MiB): 3446 / 12834 / 16280
------------------
     ethr =  2.21E-06,  avg # of iterations =  2.4

     negative rho (up, down):  3.318E-02 2.948E-02

     total cpu time spent up to now is      476.1 secs

     total energy              =    -458.71977649 Ry
     estimated scf accuracy    <       0.00116596 Ry

     total magnetization       =    10.43 Bohr mag/cell
     absolute magnetization    =    14.80 Bohr mag/cell
[tb_dev] Currently allocated     8.88E+00 Mbytes, locked:    0 /  10
[tb_pin] Currently allocated     0.00E+00 Mbytes, locked:    0 /   0

     iteration # 39     ecut=    50.00 Ry     beta= 0.40
     Davidson diagonalization with overlap

---- Real-time Memory Report at c_bands before calling an iterative solver
          4587 MiB given to the printing process from OS
          -434 MiB allocation reported by mallinfo(arena+hblkhd)
         55261 MiB available memory on the node where the printing process lives
     GPU memory used/free/total (MiB): 3446 / 12834 / 16280
------------------
     ethr =  1.53E-06,  avg # of iterations =  4.1

     negative rho (up, down):  3.320E-02 2.946E-02

     total cpu time spent up to now is      492.0 secs

     total energy              =    -458.72044342 Ry
     estimated scf accuracy    <       0.00054908 Ry

     total magnetization       =    10.15 Bohr mag/cell
     absolute magnetization    =    14.80 Bohr mag/cell
[tb_dev] Currently allocated     8.88E+00 Mbytes, locked:    0 /  10
[tb_pin] Currently allocated     0.00E+00 Mbytes, locked:    0 /   0

     iteration # 40     ecut=    50.00 Ry     beta= 0.40
     Davidson diagonalization with overlap

---- Real-time Memory Report at c_bands before calling an iterative solver
          4603 MiB given to the printing process from OS
          -420 MiB allocation reported by mallinfo(arena+hblkhd)
         55250 MiB available memory on the node where the printing process lives
     GPU memory used/free/total (MiB): 3446 / 12834 / 16280
------------------
     ethr =  7.22E-07,  avg # of iterations =  5.1

     negative rho (up, down):  3.321E-02 2.944E-02

     total cpu time spent up to now is      509.7 secs

     total energy              =    -458.72097264 Ry
     estimated scf accuracy    <       0.00039198 Ry

     total magnetization       =     9.96 Bohr mag/cell
     absolute magnetization    =    14.84 Bohr mag/cell
[tb_dev] Currently allocated     8.88E+00 Mbytes, locked:    0 /  10
[tb_pin] Currently allocated     0.00E+00 Mbytes, locked:    0 /   0

     iteration # 41     ecut=    50.00 Ry     beta= 0.40
     Davidson diagonalization with overlap

---- Real-time Memory Report at c_bands before calling an iterative solver
          4618 MiB given to the printing process from OS
          -405 MiB allocation reported by mallinfo(arena+hblkhd)
         55233 MiB available memory on the node where the printing process lives
     GPU memory used/free/total (MiB): 3446 / 12834 / 16280
------------------
     ethr =  5.16E-07,  avg # of iterations =  6.0

     negative rho (up, down):  3.323E-02 2.943E-02

     total cpu time spent up to now is      528.6 secs

     total energy              =    -458.72133305 Ry
     estimated scf accuracy    <       0.00012435 Ry

     total magnetization       =    10.02 Bohr mag/cell
     absolute magnetization    =    14.86 Bohr mag/cell
[tb_dev] Currently allocated     8.88E+00 Mbytes, locked:    0 /  10
[tb_pin] Currently allocated     0.00E+00 Mbytes, locked:    0 /   0

     iteration # 42     ecut=    50.00 Ry     beta= 0.40
     Davidson diagonalization with overlap

---- Real-time Memory Report at c_bands before calling an iterative solver
          4635 MiB given to the printing process from OS
          -390 MiB allocation reported by mallinfo(arena+hblkhd)
         55216 MiB available memory on the node where the printing process lives
     GPU memory used/free/total (MiB): 3446 / 12834 / 16280
------------------
     ethr =  1.64E-07,  avg # of iterations =  6.9

     negative rho (up, down):  3.321E-02 2.943E-02

     total cpu time spent up to now is      550.3 secs

     total energy              =    -458.72179784 Ry
     estimated scf accuracy    <       0.00010049 Ry

     total magnetization       =    10.03 Bohr mag/cell
     absolute magnetization    =    14.89 Bohr mag/cell
[tb_dev] Currently allocated     8.88E+00 Mbytes, locked:    0 /  10
[tb_pin] Currently allocated     0.00E+00 Mbytes, locked:    0 /   0

     iteration # 43     ecut=    50.00 Ry     beta= 0.40
     Davidson diagonalization with overlap

---- Real-time Memory Report at c_bands before calling an iterative solver
          4653 MiB given to the printing process from OS
          -375 MiB allocation reported by mallinfo(arena+hblkhd)
         55204 MiB available memory on the node where the printing process lives
     GPU memory used/free/total (MiB): 3446 / 12834 / 16280
------------------
     ethr =  1.32E-07,  avg # of iterations =  6.2

     negative rho (up, down):  3.321E-02 2.942E-02

     total cpu time spent up to now is      569.6 secs

     total energy              =    -458.72119936 Ry
     estimated scf accuracy    <       0.00015792 Ry

     total magnetization       =     9.93 Bohr mag/cell
     absolute magnetization    =    14.86 Bohr mag/cell
[tb_dev] Currently allocated     8.88E+00 Mbytes, locked:    0 /  10
[tb_pin] Currently allocated     0.00E+00 Mbytes, locked:    0 /   0

     iteration # 44     ecut=    50.00 Ry     beta= 0.40
     Davidson diagonalization with overlap

---- Real-time Memory Report at c_bands before calling an iterative solver
          4667 MiB given to the printing process from OS
          -361 MiB allocation reported by mallinfo(arena+hblkhd)
         55186 MiB available memory on the node where the printing process lives
     GPU memory used/free/total (MiB): 3446 / 12834 / 16280
------------------
     ethr =  1.32E-07,  avg # of iterations =  8.1

     negative rho (up, down):  3.322E-02 2.942E-02

     total cpu time spent up to now is      594.1 secs

     total energy              =    -458.72241690 Ry
     estimated scf accuracy    <       0.00029919 Ry

     total magnetization       =     9.79 Bohr mag/cell
     absolute magnetization    =    14.87 Bohr mag/cell
[tb_dev] Currently allocated     8.88E+00 Mbytes, locked:    0 /  10
[tb_pin] Currently allocated     0.00E+00 Mbytes, locked:    0 /   0

     iteration # 45     ecut=    50.00 Ry     beta= 0.40
     Davidson diagonalization with overlap

---- Real-time Memory Report at c_bands before calling an iterative solver
          4683 MiB given to the printing process from OS
          -346 MiB allocation reported by mallinfo(arena+hblkhd)
         55173 MiB available memory on the node where the printing process lives
     GPU memory used/free/total (MiB): 3446 / 12834 / 16280
------------------
     ethr =  1.32E-07,  avg # of iterations =  1.0

     negative rho (up, down):  3.320E-02 2.942E-02

     total cpu time spent up to now is      605.0 secs

     total energy              =    -458.72242759 Ry
     estimated scf accuracy    <       0.00028818 Ry

     total magnetization       =     9.79 Bohr mag/cell
     absolute magnetization    =    14.87 Bohr mag/cell
[tb_dev] Currently allocated     8.88E+00 Mbytes, locked:    0 /  10
[tb_pin] Currently allocated     0.00E+00 Mbytes, locked:    0 /   0

     iteration # 46     ecut=    50.00 Ry     beta= 0.40
     Davidson diagonalization with overlap

---- Real-time Memory Report at c_bands before calling an iterative solver
          4698 MiB given to the printing process from OS
          -331 MiB allocation reported by mallinfo(arena+hblkhd)
         55161 MiB available memory on the node where the printing process lives
     GPU memory used/free/total (MiB): 3446 / 12834 / 16280
------------------
     ethr =  1.32E-07,  avg # of iterations =  5.6

     negative rho (up, down):  3.320E-02 2.942E-02

     total cpu time spent up to now is      622.9 secs

     total energy              =    -458.72254374 Ry
     estimated scf accuracy    <       0.00039543 Ry

     total magnetization       =     9.79 Bohr mag/cell
     absolute magnetization    =    14.87 Bohr mag/cell
[tb_dev] Currently allocated     8.88E+00 Mbytes, locked:    0 /  10
[tb_pin] Currently allocated     0.00E+00 Mbytes, locked:    0 /   0

     iteration # 47     ecut=    50.00 Ry     beta= 0.40
     Davidson diagonalization with overlap

---- Real-time Memory Report at c_bands before calling an iterative solver
          4715 MiB given to the printing process from OS
          -316 MiB allocation reported by mallinfo(arena+hblkhd)
         55144 MiB available memory on the node where the printing process lives
     GPU memory used/free/total (MiB): 3446 / 12834 / 16280
------------------
     ethr =  1.32E-07,  avg # of iterations =  1.0

     negative rho (up, down):  3.320E-02 2.943E-02

     total cpu time spent up to now is      633.8 secs

     total energy              =    -458.72255874 Ry
     estimated scf accuracy    <       0.00029563 Ry

     total magnetization       =     9.79 Bohr mag/cell
     absolute magnetization    =    14.87 Bohr mag/cell
[tb_dev] Currently allocated     8.88E+00 Mbytes, locked:    0 /  10
[tb_pin] Currently allocated     0.00E+00 Mbytes, locked:    0 /   0

     iteration # 48     ecut=    50.00 Ry     beta= 0.40
     Davidson diagonalization with overlap

---- Real-time Memory Report at c_bands before calling an iterative solver
          4730 MiB given to the printing process from OS
          -302 MiB allocation reported by mallinfo(arena+hblkhd)
         55128 MiB available memory on the node where the printing process lives
     GPU memory used/free/total (MiB): 3446 / 12834 / 16280
------------------
     ethr =  1.32E-07,  avg # of iterations =  4.4

     negative rho (up, down):  3.322E-02 2.943E-02

     total cpu time spent up to now is      649.0 secs

     total energy              =    -458.72079313 Ry
     estimated scf accuracy    <       0.00017881 Ry

     total magnetization       =     9.78 Bohr mag/cell
     absolute magnetization    =    14.88 Bohr mag/cell
[tb_dev] Currently allocated     8.88E+00 Mbytes, locked:    0 /  10
[tb_pin] Currently allocated     0.00E+00 Mbytes, locked:    0 /   0

     iteration # 49     ecut=    50.00 Ry     beta= 0.40
     Davidson diagonalization with overlap

---- Real-time Memory Report at c_bands before calling an iterative solver
          4747 MiB given to the printing process from OS
          -282 MiB allocation reported by mallinfo(arena+hblkhd)
         55108 MiB available memory on the node where the printing process lives
     GPU memory used/free/total (MiB): 3446 / 12834 / 16280
------------------
     ethr =  1.32E-07,  avg # of iterations =  8.6

     negative rho (up, down):  3.322E-02 2.943E-02

     total cpu time spent up to now is      674.5 secs

     total energy              =    -458.72205489 Ry
     estimated scf accuracy    <       0.00013316 Ry

     total magnetization       =     9.96 Bohr mag/cell
     absolute magnetization    =    14.89 Bohr mag/cell
[tb_dev] Currently allocated     8.88E+00 Mbytes, locked:    0 /  10
[tb_pin] Currently allocated     0.00E+00 Mbytes, locked:    0 /   0

     iteration # 50     ecut=    50.00 Ry     beta= 0.40
     Davidson diagonalization with overlap

---- Real-time Memory Report at c_bands before calling an iterative solver
          4766 MiB given to the printing process from OS
          -267 MiB allocation reported by mallinfo(arena+hblkhd)
         55096 MiB available memory on the node where the printing process lives
     GPU memory used/free/total (MiB): 3446 / 12834 / 16280
------------------
     ethr =  1.32E-07,  avg # of iterations =  4.0

     negative rho (up, down):  3.322E-02 2.943E-02

     total cpu time spent up to now is      689.0 secs

     total energy              =    -458.72199701 Ry
     estimated scf accuracy    <       0.00013775 Ry

     total magnetization       =     9.96 Bohr mag/cell
     absolute magnetization    =    14.89 Bohr mag/cell
[tb_dev] Currently allocated     8.88E+00 Mbytes, locked:    0 /  10
[tb_pin] Currently allocated     0.00E+00 Mbytes, locked:    0 /   0

     iteration # 51     ecut=    50.00 Ry     beta= 0.40
     Davidson diagonalization with overlap

---- Real-time Memory Report at c_bands before calling an iterative solver
          4783 MiB given to the printing process from OS
          -252 MiB allocation reported by mallinfo(arena+hblkhd)
         55079 MiB available memory on the node where the printing process lives
     GPU memory used/free/total (MiB): 3446 / 12834 / 16280
------------------
     ethr =  1.32E-07,  avg # of iterations =  6.3

     negative rho (up, down):  3.322E-02 2.943E-02

     total cpu time spent up to now is      709.1 secs

     total energy              =    -458.72236601 Ry
     estimated scf accuracy    <       0.00011640 Ry

     total magnetization       =     9.91 Bohr mag/cell
     absolute magnetization    =    14.90 Bohr mag/cell
[tb_dev] Currently allocated     8.88E+00 Mbytes, locked:    0 /  10
[tb_pin] Currently allocated     0.00E+00 Mbytes, locked:    0 /   0

     iteration # 52     ecut=    50.00 Ry     beta= 0.40
     Davidson diagonalization with overlap

---- Real-time Memory Report at c_bands before calling an iterative solver
          4798 MiB given to the printing process from OS
          -237 MiB allocation reported by mallinfo(arena+hblkhd)
         55065 MiB available memory on the node where the printing process lives
     GPU memory used/free/total (MiB): 3446 / 12834 / 16280
------------------
     ethr =  1.32E-07,  avg # of iterations =  2.2

     negative rho (up, down):  3.320E-02 2.944E-02

     total cpu time spent up to now is      721.3 secs

     total energy              =    -458.72229143 Ry
     estimated scf accuracy    <       0.00009998 Ry

     total magnetization       =     9.90 Bohr mag/cell
     absolute magnetization    =    14.90 Bohr mag/cell
[tb_dev] Currently allocated     8.88E+00 Mbytes, locked:    0 /  10
[tb_pin] Currently allocated     0.00E+00 Mbytes, locked:    0 /   0

     iteration # 53     ecut=    50.00 Ry     beta= 0.40
     Davidson diagonalization with overlap

---- Real-time Memory Report at c_bands before calling an iterative solver
          4813 MiB given to the printing process from OS
          -223 MiB allocation reported by mallinfo(arena+hblkhd)
         55052 MiB available memory on the node where the printing process lives
[...]
     absolute magnetization    =    14.89 Bohr mag/cell
[tb_dev] Currently allocated     8.88E+00 Mbytes, locked:    0 /  10
[tb_pin] Currently allocated     0.00E+00 Mbytes, locked:    0 /   0

     iteration # 66     ecut=    50.00 Ry     beta= 0.40
     Davidson diagonalization with overlap

---- Real-time Memory Report at c_bands before calling an iterative solver
          5021 MiB given to the printing process from OS
           -12 MiB allocation reported by mallinfo(arena+hblkhd)
         54837 MiB available memory on the node where the printing process lives
     GPU memory used/free/total (MiB): 3446 / 12834 / 16280
------------------
     ethr =  1.08E-08,  avg # of iterations =  3.8

     negative rho (up, down):  3.313E-02 2.949E-02

     total cpu time spent up to now is     1058.2 secs

     total energy              =    -458.72315100 Ry
     estimated scf accuracy    <       0.00002599 Ry

     total magnetization       =     9.52 Bohr mag/cell
     absolute magnetization    =    14.89 Bohr mag/cell
[tb_dev] Currently allocated     8.88E+00 Mbytes, locked:    0 /  10
[tb_pin] Currently allocated     0.00E+00 Mbytes, locked:    0 /   0

     iteration # 67     ecut=    50.00 Ry     beta= 0.40
     Davidson diagonalization with overlap

---- Real-time Memory Report at c_bands before calling an iterative solver
          5037 MiB given to the printing process from OS
             2 MiB allocation reported by mallinfo(arena+hblkhd)
         54822 MiB available memory on the node where the printing process lives
     GPU memory used/free/total (MiB): 3446 / 12834 / 16280
------------------
     ethr =  1.08E-08,  avg # of iterations =  9.3

     negative rho (up, down):  3.313E-02 2.949E-02

     total cpu time spent up to now is     1084.1 secs

     total energy              =    -458.72315131 Ry
     estimated scf accuracy    <       0.00000939 Ry

     total magnetization       =     9.54 Bohr mag/cell
     absolute magnetization    =    14.89 Bohr mag/cell
[tb_dev] Currently allocated     8.88E+00 Mbytes, locked:    0 /  10
[tb_pin] Currently allocated     0.00E+00 Mbytes, locked:    0 /   0

     iteration # 68     ecut=    50.00 Ry     beta= 0.40
     Davidson diagonalization with overlap

---- Real-time Memory Report at c_bands before calling an iterative solver
          5051 MiB given to the printing process from OS
            17 MiB allocation reported by mallinfo(arena+hblkhd)
         54808 MiB available memory on the node where the printing process lives
     GPU memory used/free/total (MiB): 3446 / 12834 / 16280
------------------
     ethr =  1.08E-08,  avg # of iterations =  8.1

     negative rho (up, down):  3.314E-02 2.948E-02

     total cpu time spent up to now is     1108.7 secs

     total energy              =    -458.72248439 Ry
     estimated scf accuracy    <       0.00003353 Ry

     total magnetization       =     9.52 Bohr mag/cell
     absolute magnetization    =    14.89 Bohr mag/cell
[tb_dev] Currently allocated     8.88E+00 Mbytes, locked:    0 /  10
[tb_pin] Currently allocated     0.00E+00 Mbytes, locked:    0 /   0

     iteration # 69     ecut=    50.00 Ry     beta= 0.40
     Davidson diagonalization with overlap

---- Real-time Memory Report at c_bands before calling an iterative solver
          5065 MiB given to the printing process from OS
            31 MiB allocation reported by mallinfo(arena+hblkhd)
         54793 MiB available memory on the node where the printing process lives
     GPU memory used/free/total (MiB): 3446 / 12834 / 16280
------------------
     ethr =  1.08E-08,  avg # of iterations = 13.6

     negative rho (up, down):  3.313E-02 2.950E-02

     total cpu time spent up to now is     1145.2 secs

     total energy              =    -458.72259087 Ry
     estimated scf accuracy    <       0.00003574 Ry

     total magnetization       =     9.58 Bohr mag/cell
     absolute magnetization    =    14.89 Bohr mag/cell
[tb_dev] Currently allocated     8.88E+00 Mbytes, locked:    0 /  10
[tb_pin] Currently allocated     0.00E+00 Mbytes, locked:    0 /   0

     iteration # 70     ecut=    50.00 Ry     beta= 0.40
     Davidson diagonalization with overlap

---- Real-time Memory Report at c_bands before calling an iterative solver
          5083 MiB given to the printing process from OS
            51 MiB allocation reported by mallinfo(arena+hblkhd)
         54770 MiB available memory on the node where the printing process lives
     GPU memory used/free/total (MiB): 3446 / 12834 / 16280
------------------
     ethr =  1.08E-08,  avg # of iterations = 13.6

     negative rho (up, down):  3.313E-02 2.949E-02

     total cpu time spent up to now is     1181.7 secs

     total energy              =    -458.72318968 Ry
     estimated scf accuracy    <       0.00000566 Ry

     total magnetization       =     9.52 Bohr mag/cell
     absolute magnetization    =    14.89 Bohr mag/cell
[tb_dev] Currently allocated     8.88E+00 Mbytes, locked:    0 /  10
[tb_pin] Currently allocated     0.00E+00 Mbytes, locked:    0 /   0

     iteration # 71     ecut=    50.00 Ry     beta= 0.40
     Davidson diagonalization with overlap

---- Real-time Memory Report at c_bands before calling an iterative solver
          5100 MiB given to the printing process from OS
            66 MiB allocation reported by mallinfo(arena+hblkhd)
         54759 MiB available memory on the node where the printing process lives
     GPU memory used/free/total (MiB): 3446 / 12834 / 16280
------------------
     ethr =  7.45E-09,  avg # of iterations =  8.9

     negative rho (up, down):  3.314E-02 2.949E-02

     total cpu time spent up to now is     1207.1 secs

     total energy              =    -458.72309819 Ry
     estimated scf accuracy    <       0.00000710 Ry

     total magnetization       =     9.53 Bohr mag/cell
     absolute magnetization    =    14.89 Bohr mag/cell
[tb_dev] Currently allocated     8.88E+00 Mbytes, locked:    0 /  10
[tb_pin] Currently allocated     0.00E+00 Mbytes, locked:    0 /   0

     iteration # 72     ecut=    50.00 Ry     beta= 0.40
     Davidson diagonalization with overlap

---- Real-time Memory Report at c_bands before calling an iterative solver
          5115 MiB given to the printing process from OS
            81 MiB allocation reported by mallinfo(arena+hblkhd)
         54743 MiB available memory on the node where the printing process lives
     GPU memory used/free/total (MiB): 3446 / 12834 / 16280
------------------
     ethr =  7.45E-09,  avg # of iterations = 11.3

     negative rho (up, down):  3.314E-02 2.949E-02

     total cpu time spent up to now is     1237.0 secs

     total energy              =    -458.72317192 Ry
     estimated scf accuracy    <       0.00000425 Ry

     total magnetization       =     9.56 Bohr mag/cell
     absolute magnetization    =    14.89 Bohr mag/cell
[tb_dev] Currently allocated     8.88E+00 Mbytes, locked:    0 /  10
[tb_pin] Currently allocated     0.00E+00 Mbytes, locked:    0 /   0

     iteration # 73     ecut=    50.00 Ry     beta= 0.40
     Davidson diagonalization with overlap

---- Real-time Memory Report at c_bands before calling an iterative solver
          5130 MiB given to the printing process from OS
            95 MiB allocation reported by mallinfo(arena+hblkhd)
         54730 MiB available memory on the node where the printing process lives
     GPU memory used/free/total (MiB): 3446 / 12834 / 16280
------------------
     ethr =  5.59E-09,  avg # of iterations =  7.1

     negative rho (up, down):  3.314E-02 2.949E-02

     total cpu time spent up to now is     1258.7 secs

     total energy              =    -458.72317958 Ry
     estimated scf accuracy    <       0.00000529 Ry

     total magnetization       =     9.56 Bohr mag/cell
     absolute magnetization    =    14.89 Bohr mag/cell
[tb_dev] Currently allocated     8.88E+00 Mbytes, locked:    0 /  10
[tb_pin] Currently allocated     0.00E+00 Mbytes, locked:    0 /   0

     iteration # 74     ecut=    50.00 Ry     beta= 0.40
     Davidson diagonalization with overlap

---- Real-time Memory Report at c_bands before calling an iterative solver
          5147 MiB given to the printing process from OS
           115 MiB allocation reported by mallinfo(arena+hblkhd)
         54712 MiB available memory on the node where the printing process lives
     GPU memory used/free/total (MiB): 3446 / 12834 / 16280
------------------
     ethr =  5.59E-09,  avg # of iterations =  4.1

     negative rho (up, down):  3.313E-02 2.949E-02

     total cpu time spent up to now is     1273.5 secs

     total energy              =    -458.72283773 Ry
     estimated scf accuracy    <       0.00000528 Ry

     total magnetization       =     9.56 Bohr mag/cell
     absolute magnetization    =    14.89 Bohr mag/cell
[tb_dev] Currently allocated     8.88E+00 Mbytes, locked:    0 /  10
[tb_pin] Currently allocated     0.00E+00 Mbytes, locked:    0 /   0

     iteration # 75     ecut=    50.00 Ry     beta= 0.40
     Davidson diagonalization with overlap

---- Real-time Memory Report at c_bands before calling an iterative solver
          5165 MiB given to the printing process from OS
           130 MiB allocation reported by mallinfo(arena+hblkhd)
         54696 MiB available memory on the node where the printing process lives
     GPU memory used/free/total (MiB): 3446 / 12834 / 16280
------------------
     c_bands:  1 eigenvalues not converged
     c_bands:  2 eigenvalues not converged
     ethr =  5.59E-09,  avg # of iterations = 14.7

     negative rho (up, down):  3.313E-02 2.949E-02

     total cpu time spent up to now is     1313.3 secs

     total energy              =    -458.72320171 Ry
     estimated scf accuracy    <       0.00000535 Ry

     total magnetization       =     9.51 Bohr mag/cell
     absolute magnetization    =    14.89 Bohr mag/cell
[tb_dev] Currently allocated     8.88E+00 Mbytes, locked:    0 /  10
[tb_pin] Currently allocated     0.00E+00 Mbytes, locked:    0 /   0

     iteration # 76     ecut=    50.00 Ry     beta= 0.40
     Davidson diagonalization with overlap

---- Real-time Memory Report at c_bands before calling an iterative solver
          5179 MiB given to the printing process from OS
           145 MiB allocation reported by mallinfo(arena+hblkhd)
         54681 MiB available memory on the node where the printing process lives
     GPU memory used/free/total (MiB): 3446 / 12834 / 16280
------------------
     ethr =  5.59E-09,  avg # of iterations =  9.1

     negative rho (up, down):  3.313E-02 2.949E-02

     total cpu time spent up to now is     1338.9 secs

     total energy              =    -458.72323281 Ry
     estimated scf accuracy    <       0.00001136 Ry

     total magnetization       =     9.53 Bohr mag/cell
     absolute magnetization    =    14.89 Bohr mag/cell
[tb_dev] Currently allocated     8.88E+00 Mbytes, locked:    0 /  10
[tb_pin] Currently allocated     0.00E+00 Mbytes, locked:    0 /   0

     iteration # 77     ecut=    50.00 Ry     beta= 0.40
     Davidson diagonalization with overlap

---- Real-time Memory Report at c_bands before calling an iterative solver
          5196 MiB given to the printing process from OS
           165 MiB allocation reported by mallinfo(arena+hblkhd)
         54662 MiB available memory on the node where the printing process lives
     GPU memory used/free/total (MiB): 3446 / 12834 / 16280
------------------
     ethr =  5.59E-09,  avg # of iterations =  5.5

     negative rho (up, down):  3.313E-02 2.949E-02

     total cpu time spent up to now is     1356.4 secs

     total energy              =    -458.72322980 Ry
     estimated scf accuracy    <       0.00000361 Ry

     total magnetization       =     9.54 Bohr mag/cell
     absolute magnetization    =    14.89 Bohr mag/cell
[tb_dev] Currently allocated     8.88E+00 Mbytes, locked:    0 /  10
[tb_pin] Currently allocated     0.00E+00 Mbytes, locked:    0 /   0

     iteration # 78     ecut=    50.00 Ry     beta= 0.40
     Davidson diagonalization with overlap

---- Real-time Memory Report at c_bands before calling an iterative solver
          5214 MiB given to the printing process from OS
           179 MiB allocation reported by mallinfo(arena+hblkhd)
         54646 MiB available memory on the node where the printing process lives
     GPU memory used/free/total (MiB): 3446 / 12834 / 16280
------------------
     ethr =  4.76E-09,  avg # of iterations =  4.0

     negative rho (up, down):  3.313E-02 2.949E-02

     total cpu time spent up to now is     1372.5 secs

     total energy              =    -458.72323569 Ry
     estimated scf accuracy    <       0.00000389 Ry

     total magnetization       =     9.55 Bohr mag/cell
     absolute magnetization    =    14.89 Bohr mag/cell
[tb_dev] Currently allocated     8.88E+00 Mbytes, locked:    0 /  10
[tb_pin] Currently allocated     0.00E+00 Mbytes, locked:    0 /   0

     iteration # 79     ecut=    50.00 Ry     beta= 0.40
     Davidson diagonalization with overlap

---- Real-time Memory Report at c_bands before calling an iterative solver
          5229 MiB given to the printing process from OS
           194 MiB allocation reported by mallinfo(arena+hblkhd)
         54631 MiB available memory on the node where the printing process lives
     GPU memory used/free/total (MiB): 3446 / 12834 / 16280
------------------
     ethr =  4.76E-09,  avg # of iterations =  4.1

     negative rho (up, down):  3.313E-02 2.949E-02

     total cpu time spent up to now is     1388.2 secs

     total energy              =    -458.72323664 Ry
     estimated scf accuracy    <       0.00000410 Ry

     total magnetization       =     9.55 Bohr mag/cell
     absolute magnetization    =    14.89 Bohr mag/cell
[tb_dev] Currently allocated     8.88E+00 Mbytes, locked:    0 /  10
[tb_pin] Currently allocated     0.00E+00 Mbytes, locked:    0 /   0

     iteration # 80     ecut=    50.00 Ry     beta= 0.40
     Davidson diagonalization with overlap

---- Real-time Memory Report at c_bands before calling an iterative solver
          5244 MiB given to the printing process from OS
           209 MiB allocation reported by mallinfo(arena+hblkhd)
         54619 MiB available memory on the node where the printing process lives
     GPU memory used/free/total (MiB): 3446 / 12834 / 16280
------------------
     ethr =  4.76E-09,  avg # of iterations =  1.0

     negative rho (up, down):  3.313E-02 2.950E-02

     total cpu time spent up to now is     1399.1 secs

     total energy              =    -458.72323560 Ry
     estimated scf accuracy    <       0.00000437 Ry

     total magnetization       =     9.55 Bohr mag/cell
     absolute magnetization    =    14.89 Bohr mag/cell

     End of self-consistent calculation

     convergence NOT achieved after  80 iterations: stopping

     Writing config to output data dir ./out/aiida.save/
 
     init_run     :     32.44s CPU     11.78s WALL (       1 calls)
     electrons    :   2017.42s CPU   1387.03s WALL (       1 calls)

     Called by init_run:
     wfcinit      :      6.65s CPU      8.18s WALL (       1 calls)
                                        8.18s GPU  (       1 calls)
     wfcinit:atom :      0.11s CPU      0.20s WALL (     234 calls)
                                        0.20s GPU  (     234 calls)
     wfcinit:wfcr :      3.44s CPU      4.08s WALL (     234 calls)
                                        4.08s GPU  (     234 calls)
     potinit      :     12.94s CPU      1.23s WALL (       1 calls)
     hinit0       :      6.62s CPU      1.46s WALL (       1 calls)

     Called by electrons:
     c_bands      :   1166.43s CPU   1156.47s WALL (      80 calls)
     sum_band     :    151.61s CPU    164.70s WALL (      80 calls)
     v_of_rho     :     44.37s CPU      4.02s WALL (      81 calls)
     v_h          :      6.55s CPU      0.58s WALL (      81 calls)
     v_xc         :     37.81s CPU      3.44s WALL (      81 calls)
     newd         :     57.20s CPU      5.46s WALL (      81 calls)
                                        5.46s GPU  (      81 calls)
     PAW_pot      :    536.00s CPU     49.84s WALL (      81 calls)
     mix_rho      :     54.59s CPU      5.89s WALL (      80 calls)

     Called by c_bands:
     init_us_2    :     52.03s CPU     55.16s WALL (   37674 calls)
     init_us_2:gp :     51.35s CPU     54.54s WALL (   37674 calls)
     cegterg      :   1010.52s CPU   1007.38s WALL (   18720 calls)

     Called by sum_band:
     sum_band:wei :      1.16s CPU      1.16s WALL (      80 calls)
                                        1.16s GPU  (      80 calls)
     sum_band:loo :    142.67s CPU    155.49s WALL (      80 calls)
                                      155.49s GPU  (      80 calls)
     sum_band:buf :     48.24s CPU     50.13s WALL (   18720 calls)
                                       50.02s GPU  (   18720 calls)
     sum_band:ini :     23.37s CPU     27.01s WALL (   18720 calls)
                                       26.91s GPU  (   18720 calls)
     sum_band:cal :      0.56s CPU      8.28s WALL (   18720 calls)
                                        5.91s GPU  (   18720 calls)
     sum_band:bec :      4.96s CPU      5.43s WALL (   18720 calls)
                                        5.31s GPU  (   18720 calls)
     addusdens    :      4.15s CPU      4.34s WALL (      80 calls)
                                        4.34s GPU  (      80 calls)
     addusd:skk   :      0.05s CPU      0.05s WALL (     160 calls)
                                        0.05s GPU  (     160 calls)

     Called by *egterg:
     cdiaghg      :    350.95s CPU    377.17s WALL (  105482 calls)
                                      376.48s GPU  (  105482 calls)
     cegterg:over :     28.37s CPU     27.84s WALL (   86762 calls)
     cegterg:upda :     38.73s CPU     39.11s WALL (   86762 calls)
     cegterg:last :     19.54s CPU     19.05s WALL (   42239 calls)
     h_psi        :    492.26s CPU    468.89s WALL (  105716 calls)
                                      467.69s GPU  (  105716 calls)
     s_psi        :     15.88s CPU     37.38s WALL (  105716 calls)
                                       34.92s GPU  (  105716 calls)
     g_psi        :      0.63s CPU      3.69s WALL (   86762 calls)
                                        3.13s GPU  (   86762 calls)

     Called by h_psi:
     h_psi:calbec :      3.69s CPU     27.04s WALL (  105716 calls)
                                       26.38s GPU  (  105716 calls)
     vloc_psi     :    404.83s CPU    385.99s WALL (  105716 calls)
                                      385.33s GPU  (  105716 calls)
     add_vuspsi   :     30.44s CPU     47.02s WALL (  105716 calls)
                                       46.35s GPU  (  105716 calls)

     General routines
     calbec       :      3.08s CPU      3.01s WALL (  124436 calls)
     fft          :      2.89s CPU      0.63s WALL (    2023 calls)
                                        0.50s GPU  (    1861 calls)
     ffts         :      0.08s CPU      0.05s WALL (     322 calls)
                                        0.01s GPU  (     160 calls)
     fftw         :      9.25s CPU    296.11s WALL (  452784 calls)
                                      293.08s GPU  (  452784 calls)
     interpolate  :      6.09s CPU      0.53s WALL (     162 calls)
     davcio       :      0.13s CPU      1.52s WALL (     252 calls)
 
     Parallel routines

     PAW routines
     PAW_pot      :    536.00s CPU     49.84s WALL (      81 calls)
     PAW_symme    :      0.07s CPU      0.01s WALL (     161 calls)
 
     PWSCF        :  34m12.57s CPU  23m21.12s WALL

 
   This run was terminated on:  17:53:36  22Oct2023            

=------------------------------------------------------------------------------=
   JOB DONE.
=------------------------------------------------------------------------------=
