
     Program PWSCF v.7.2 starts on 28Nov2023 at 19: 3: 3 
        Git branch: develop
        Last git commit: 9055681be6fc8200e6fffe76ed5fda34c2696339
        Last git commit date: Wed Nov 8 16:29:39 2023 +0000
        Last git commit subject: Merge branch 'calbec_fix' into 'develop'

     This program is part of the open-source Quantum ESPRESSO suite
     for quantum simulation of materials; please cite
         "P. Giannozzi et al., J. Phys.:Condens. Matter 21 395502 (2009);
         "P. Giannozzi et al., J. Phys.:Condens. Matter 29 465901 (2017);
         "P. Giannozzi et al., J. Chem. Phys. 152 154105 (2020);
          URL http://www.quantum-espresso.org", 
     in publications or presentations arising from this work. More details at
     http://www.quantum-espresso.org/quote

     Parallel version (MPI), running on    56 processors

     MPI processes distributed on     1 nodes
     491480 MiB available memory on the printing compute node when the environment starts

     Reading input from aiida.in

     Current dimensions of program PWSCF are:
     Max number of different atomic species (ntypx) = 10
     Max number of k-points (npk) =  40000
     Max angular momentum in pseudopotentials (lmaxx) =  4
     file In.pbesol-dn-rrkjus_psl.0.2.2.UPF: wavefunction(s)  5S renormalized
     Message from routine setup:
     using ibrav=0 with symmetry is DISCOURAGED, use correct ibrav instead

     K-points division:     npool     =       8
     R & G space division:  proc/nbgrp/npool/nimage =       7
     Subspace diagonalization in iterative solution of the eigenvalue problem:
     a serial algorithm will be used


     Parallelization info
     --------------------
     sticks:   dense  smooth     PW     G-vecs:    dense   smooth      PW
     Min         273     136     42                 7908     2799     469
     Max         274     137     43                 7911     2803     470
     Sum        1915     955    295                55369    19603    3287

     Using Slab Decomposition



     bravais-lattice index     =            0
     lattice parameter (alat)  =       8.3381  a.u.
     unit-cell volume          =     409.9118 (a.u.)^3
     number of atoms/cell      =            4
     number of atomic types    =            4
     number of electrons       =        52.00
     number of Kohn-Sham states=           31
     kinetic-energy cutoff     =      50.0000  Ry
     charge density cutoff     =     400.0000  Ry
     scf convergence threshold =      8.0E-10
     mixing beta               =       0.4000
     number of iterations used =            8  plain     mixing
     Exchange-correlation= SLA  PW   PSX  PSC
                           (   1   4  10   8   0   0   0)

     celldm(1)=   8.338126  celldm(2)=   0.000000  celldm(3)=   0.000000
     celldm(4)=   0.000000  celldm(5)=   0.000000  celldm(6)=   0.000000

     crystal axes: (cart. coord. in units of alat)
               a(1) = (   0.000000   0.707107   0.707107 )  
               a(2) = (   0.707107   0.000000   0.707107 )  
               a(3) = (   0.707107   0.707107   0.000000 )  

     reciprocal axes: (cart. coord. in units 2 pi/alat)
               b(1) = ( -0.707107  0.707107  0.707107 )  
               b(2) = (  0.707107 -0.707107  0.707107 )  
               b(3) = (  0.707107  0.707107 -0.707107 )  


     PseudoPot. # 1 for Cr read from file:
     ./pseudo/cr_pbesol_v1.5.uspp.F.UPF
     MD5 check sum: a621641e0be27168676a837af8893d0f
     Pseudo is Ultrasoft + core correction, Zval = 14.0
     Generated by new atomic code, or converted to UPF format
     Using radial grid of  857 points,  6 beta functions with: 
                l(1) =   0
                l(2) =   0
                l(3) =   1
                l(4) =   1
                l(5) =   2
                l(6) =   2
     Q(r) pseudized with  8 coefficients,  rinner =    0.950   0.950   0.950
                                                       0.950   0.950

     PseudoPot. # 2 for In read from file:
     ./pseudo/In.pbesol-dn-rrkjus_psl.0.2.2.UPF
     MD5 check sum: 2a3399a31491503da6b8c7d8e01e9843
     Pseudo is Ultrasoft + core correction, Zval = 13.0
     Generated using "atomic" code by A. Dal Corso  v.6.0 svn rev. 13079
     Using radial grid of 1241 points,  6 beta functions with: 
                l(1) =   0
                l(2) =   0
                l(3) =   1
                l(4) =   1
                l(5) =   2
                l(6) =   2
     Q(r) pseudized with 0 coefficients 


     PseudoPot. # 3 for Ti read from file:
     ./pseudo/ti_pbesol_v1.4.uspp.F.UPF
     MD5 check sum: 193cf2c0c3c6a4da613d69453fa7e3e9
     Pseudo is Ultrasoft + core correction, Zval = 12.0
     Generated by new atomic code, or converted to UPF format
     Using radial grid of  851 points,  6 beta functions with: 
                l(1) =   0
                l(2) =   0
                l(3) =   1
                l(4) =   1
                l(5) =   2
                l(6) =   2
     Q(r) pseudized with  6 coefficients,  rinner =    1.000   1.000   1.000
                                                       1.000   1.000

     PseudoPot. # 4 for V  read from file:
     ./pseudo/v_pbesol_v1.4.uspp.F.UPF
     MD5 check sum: 72fa7d0034c41d8adc50bbc8c632b9f9
     Pseudo is Ultrasoft + core correction, Zval = 13.0
     Generated by new atomic code, or converted to UPF format
     Using radial grid of  853 points,  6 beta functions with: 
                l(1) =   0
                l(2) =   0
                l(3) =   1
                l(4) =   1
                l(5) =   2
                l(6) =   2
     Q(r) pseudized with  8 coefficients,  rinner =    1.100   1.100   1.100
                                                       1.100   1.100

     atomic species   valence    mass     pseudopotential
     Cr               14.00    51.99610     Cr( 1.00)
     In               13.00   114.81800     In( 1.00)
     Ti               12.00    47.86700     Ti( 1.00)
     V                13.00    50.94150     V ( 1.00)

     Starting magnetic structure 
     atomic species   magnetization
     Cr              0.357
     In              0.100
     Ti              0.417
     V               0.385

     24 Sym. Ops. (no inversion) found


                                    s                        frac. trans.

      isym =  1     identity                                     

 cryst.   s( 1) = (     1          0          0      )
                  (     0          1          0      )
                  (     0          0          1      )

 cart.    s( 1) = (  1.0000000 -0.0000000  0.0000000 )
                  ( -0.0000000  1.0000000  0.0000000 )
                  ( -0.0000000  0.0000000  1.0000000 )


      isym =  2     180 deg rotation - cart. axis [0,0,1]        

 cryst.   s( 2) = (     0          1         -1      )
                  (     1          0         -1      )
                  (     0          0         -1      )

 cart.    s( 2) = ( -1.0000000  0.0000000  0.0000000 )
                  (  0.0000000 -1.0000000  0.0000000 )
                  (  0.0000000 -0.0000000  1.0000000 )


      isym =  3     180 deg rotation - cart. axis [0,1,0]        

 cryst.   s( 3) = (     0         -1          1      )
                  (     0         -1          0      )
                  (     1         -1          0      )

 cart.    s( 3) = ( -1.0000000 -0.0000000 -0.0000000 )
                  (  0.0000000  1.0000000 -0.0000000 )
                  (  0.0000000  0.0000000 -1.0000000 )


      isym =  4     180 deg rotation - cart. axis [1,0,0]        

 cryst.   s( 4) = (    -1          0          0      )
                  (    -1          0          1      )
                  (    -1          1          0      )

 cart.    s( 4) = (  1.0000000  0.0000000 -0.0000000 )
                  ( -0.0000000 -1.0000000 -0.0000000 )
                  ( -0.0000000 -0.0000000 -1.0000000 )


      isym =  5     120 deg rotation - cart. axis [-1,-1,-1]     

 cryst.   s( 5) = (     0          0          1      )
                  (     1          0          0      )
                  (     0          1          0      )

 cart.    s( 5) = (  0.0000000  1.0000000 -0.0000000 )
                  (  0.0000000 -0.0000000  1.0000000 )
                  (  1.0000000 -0.0000000  0.0000000 )


      isym =  6     120 deg rotation - cart. axis [-1,1,1]       

 cryst.   s( 6) = (     1         -1          0      )
                  (     0         -1          1      )
                  (     0         -1          0      )

 cart.    s( 6) = ( -0.0000000 -1.0000000 -0.0000000 )
                  ( -0.0000000  0.0000000  1.0000000 )
                  ( -1.0000000  0.0000000  0.0000000 )


      isym =  7     120 deg rotation - cart. axis [1,1,-1]       

 cryst.   s( 7) = (    -1          1          0      )
                  (    -1          0          0      )
                  (    -1          0          1      )

 cart.    s( 7) = ( -0.0000000  1.0000000  0.0000000 )
                  ( -0.0000000 -0.0000000 -1.0000000 )
                  ( -1.0000000 -0.0000000 -0.0000000 )


      isym =  8     120 deg rotation - cart. axis [1,-1,1]       

 cryst.   s( 8) = (     0          0         -1      )
                  (     0          1         -1      )
                  (     1          0         -1      )

 cart.    s( 8) = (  0.0000000 -1.0000000  0.0000000 )
                  (  0.0000000  0.0000000 -1.0000000 )
                  (  1.0000000  0.0000000 -0.0000000 )


      isym =  9     120 deg rotation - cart. axis [1,1,1]        

 cryst.   s( 9) = (     0          1          0      )
                  (     0          0          1      )
                  (     1          0          0      )

 cart.    s( 9) = ( -0.0000000  0.0000000  1.0000000 )
                  (  1.0000000  0.0000000 -0.0000000 )
                  (  0.0000000  1.0000000 -0.0000000 )


      isym = 10     120 deg rotation - cart. axis [-1,1,-1]      

 cryst.   s(10) = (    -1          0          1      )
                  (    -1          1          0      )
                  (    -1          0          0      )

 cart.    s(10) = (  0.0000000 -0.0000000  1.0000000 )
                  ( -1.0000000 -0.0000000 -0.0000000 )
                  ( -0.0000000 -1.0000000 -0.0000000 )


      isym = 11     120 deg rotation - cart. axis [1,-1,-1]      

 cryst.   s(11) = (     1          0         -1      )
                  (     0          0         -1      )
                  (     0          1         -1      )

 cart.    s(11) = (  0.0000000  0.0000000 -1.0000000 )
                  ( -1.0000000  0.0000000  0.0000000 )
                  ( -0.0000000  1.0000000  0.0000000 )


      isym = 12     120 deg rotation - cart. axis [-1,-1,1]      

 cryst.   s(12) = (     0         -1          0      )
                  (     1         -1          0      )
                  (     0         -1          1      )

 cart.    s(12) = ( -0.0000000 -0.0000000 -1.0000000 )
                  (  1.0000000 -0.0000000  0.0000000 )
                  (  0.0000000 -1.0000000  0.0000000 )


      isym = 13     inv. 180 deg rotation - cart. axis [1,1,0]   

 cryst.   s(13) = (     1          0         -1      )
                  (     0          1         -1      )
                  (     0          0         -1      )

 cart.    s(13) = (  0.0000000 -1.0000000  0.0000000 )
                  ( -1.0000000  0.0000000  0.0000000 )
                  ( -0.0000000  0.0000000  1.0000000 )


      isym = 14     inv. 180 deg rotation - cart. axis [1,-1,0]  

 cryst.   s(14) = (     0          1          0      )
                  (     1          0          0      )
                  (     0          0          1      )

 cart.    s(14) = ( -0.0000000  1.0000000  0.0000000 )
                  (  1.0000000 -0.0000000  0.0000000 )
                  (  0.0000000 -0.0000000  1.0000000 )


      isym = 15     inv.  90 deg rotation - cart. axis [0,0,-1]  

 cryst.   s(15) = (     0         -1          0      )
                  (     0         -1          1      )
                  (     1         -1          0      )

 cart.    s(15) = ( -0.0000000 -1.0000000 -0.0000000 )
                  (  1.0000000  0.0000000 -0.0000000 )
                  (  0.0000000  0.0000000 -1.0000000 )


      isym = 16     inv.  90 deg rotation - cart. axis [0,0,1]   

 cryst.   s(16) = (    -1          0          1      )
                  (    -1          0          0      )
                  (    -1          1          0      )

 cart.    s(16) = (  0.0000000  1.0000000 -0.0000000 )
                  ( -1.0000000 -0.0000000 -0.0000000 )
                  ( -0.0000000 -0.0000000 -1.0000000 )


      isym = 17     inv. 180 deg rotation - cart. axis [1,0,1]   

 cryst.   s(17) = (     1         -1          0      )
                  (     0         -1          0      )
                  (     0         -1          1      )

 cart.    s(17) = ( -0.0000000 -0.0000000 -1.0000000 )
                  ( -0.0000000  1.0000000  0.0000000 )
                  ( -1.0000000  0.0000000  0.0000000 )


      isym = 18     inv. 180 deg rotation - cart. axis [-1,0,1]  

 cryst.   s(18) = (     0          0          1      )
                  (     0          1          0      )
                  (     1          0          0      )

 cart.    s(18) = (  0.0000000 -0.0000000  1.0000000 )
                  (  0.0000000  1.0000000 -0.0000000 )
                  (  1.0000000  0.0000000 -0.0000000 )


      isym = 19     inv.  90 deg rotation - cart. axis [0,1,0]   

 cryst.   s(19) = (     0          0         -1      )
                  (     1          0         -1      )
                  (     0          1         -1      )

 cart.    s(19) = (  0.0000000  0.0000000 -1.0000000 )
                  (  0.0000000 -1.0000000  0.0000000 )
                  (  1.0000000 -0.0000000  0.0000000 )


      isym = 20     inv.  90 deg rotation - cart. axis [0,-1,0]  

 cryst.   s(20) = (    -1          1          0      )
                  (    -1          0          1      )
                  (    -1          0          0      )

 cart.    s(20) = ( -0.0000000  0.0000000  1.0000000 )
                  ( -0.0000000 -1.0000000 -0.0000000 )
                  ( -1.0000000 -0.0000000 -0.0000000 )


      isym = 21     inv. 180 deg rotation - cart. axis [0,1,1]   

 cryst.   s(21) = (    -1          0          0      )
                  (    -1          1          0      )
                  (    -1          0          1      )

 cart.    s(21) = (  1.0000000 -0.0000000  0.0000000 )
                  ( -0.0000000 -0.0000000 -1.0000000 )
                  ( -0.0000000 -1.0000000 -0.0000000 )


      isym = 22     inv. 180 deg rotation - cart. axis [0,1,-1]  

 cryst.   s(22) = (     1          0          0      )
                  (     0          0          1      )
                  (     0          1          0      )

 cart.    s(22) = (  1.0000000  0.0000000 -0.0000000 )
                  ( -0.0000000  0.0000000  1.0000000 )
                  ( -0.0000000  1.0000000  0.0000000 )


      isym = 23     inv.  90 deg rotation - cart. axis [-1,0,0]  

 cryst.   s(23) = (     0          1         -1      )
                  (     0          0         -1      )
                  (     1          0         -1      )

 cart.    s(23) = ( -1.0000000  0.0000000  0.0000000 )
                  (  0.0000000  0.0000000 -1.0000000 )
                  (  0.0000000  1.0000000 -0.0000000 )


      isym = 24     inv.  90 deg rotation - cart. axis [1,0,0]   

 cryst.   s(24) = (     0         -1          1      )
                  (     1         -1          0      )
                  (     0         -1          0      )

 cart.    s(24) = ( -1.0000000 -0.0000000 -0.0000000 )
                  (  0.0000000 -0.0000000  1.0000000 )
                  (  0.0000000 -1.0000000  0.0000000 )


   Cartesian axes

     site n.     atom                  positions (alat units)
         1        Ti     tau(   1) = (   0.3535534   0.3535534   0.3535534  )
         2        V      tau(   2) = (   0.7071068   0.0000000   0.0000000  )
         3        Cr     tau(   3) = (   0.0000000   0.0000000   0.0000000  )
         4        In     tau(   4) = (   0.3535534   0.3535534   1.0606602  )

   Crystallographic axes

     site n.     atom                  positions (cryst. coord.)
         1        Ti     tau(   1) = (  0.2500000  0.2500000  0.2500000  )
         2        V      tau(   2) = ( -0.5000000  0.5000000  0.5000000  )
         3        Cr     tau(   3) = (  0.0000000  0.0000000  0.0000000  )
         4        In     tau(   4) = (  0.7500000  0.7500000 -0.2500000  )

     number of k points=    72  Marzari-Vanderbilt smearing, width (Ry)=  0.0200
                       cart. coord. in units 2pi/alat
        k(    1) = (   0.0000000   0.0000000   0.0000000), wk =   0.0005787
        k(    2) = (   0.0589256   0.0589256  -0.0589256), wk =   0.0046296
        k(    3) = (   0.1178511   0.1178511  -0.1178511), wk =   0.0046296
        k(    4) = (   0.1767767   0.1767767  -0.1767767), wk =   0.0046296
        k(    5) = (   0.2357023   0.2357023  -0.2357023), wk =   0.0046296
        k(    6) = (   0.2946278   0.2946278  -0.2946278), wk =   0.0046296
        k(    7) = (  -0.3535534  -0.3535534   0.3535534), wk =   0.0023148
        k(    8) = (   0.1178511   0.0000000  -0.0000000), wk =   0.0034722
        k(    9) = (   0.1767767   0.0589256  -0.0589256), wk =   0.0138889
        k(   10) = (   0.2357023   0.1178511  -0.1178511), wk =   0.0138889
        k(   11) = (   0.2946278   0.1767767  -0.1767767), wk =   0.0138889
        k(   12) = (   0.3535534   0.2357023  -0.2357023), wk =   0.0138889
        k(   13) = (  -0.2946278  -0.4124790   0.4124790), wk =   0.0138889
        k(   14) = (  -0.2357023  -0.3535534   0.3535534), wk =   0.0138889
        k(   15) = (  -0.1767767  -0.2946278   0.2946278), wk =   0.0138889
        k(   16) = (  -0.1178511  -0.2357023   0.2357023), wk =   0.0138889
        k(   17) = (  -0.0589256  -0.1767767   0.1767767), wk =   0.0138889
        k(   18) = (  -0.0000000  -0.1178511   0.1178511), wk =   0.0069444
        k(   19) = (   0.2357023   0.0000000  -0.0000000), wk =   0.0034722
        k(   20) = (   0.2946278   0.0589256  -0.0589256), wk =   0.0138889
        k(   21) = (   0.3535534   0.1178511  -0.1178511), wk =   0.0138889
        k(   22) = (   0.4124790   0.1767767  -0.1767767), wk =   0.0138889
        k(   23) = (  -0.2357023  -0.4714045   0.4714045), wk =   0.0138889
        k(   24) = (  -0.1767767  -0.4124790   0.4124790), wk =   0.0138889
        k(   25) = (  -0.1178511  -0.3535534   0.3535534), wk =   0.0138889
        k(   26) = (  -0.0589256  -0.2946278   0.2946278), wk =   0.0138889
        k(   27) = (   0.0000000  -0.2357023   0.2357023), wk =   0.0069444
        k(   28) = (   0.3535534   0.0000000   0.0000000), wk =   0.0034722
        k(   29) = (   0.4124790   0.0589256  -0.0589256), wk =   0.0138889
        k(   30) = (   0.4714045   0.1178511  -0.1178511), wk =   0.0138889
        k(   31) = (  -0.1767767  -0.5303301   0.5303301), wk =   0.0138889
        k(   32) = (  -0.1178511  -0.4714045   0.4714045), wk =   0.0138889
        k(   33) = (  -0.0589256  -0.4124790   0.4124790), wk =   0.0138889
        k(   34) = (   0.0000000  -0.3535534   0.3535534), wk =   0.0069444
        k(   35) = (   0.4714045   0.0000000  -0.0000000), wk =   0.0034722
        k(   36) = (   0.5303301   0.0589256  -0.0589256), wk =   0.0138889
        k(   37) = (  -0.1178511  -0.5892557   0.5892557), wk =   0.0138889
        k(   38) = (  -0.0589256  -0.5303301   0.5303301), wk =   0.0138889
        k(   39) = (  -0.0000000  -0.4714045   0.4714045), wk =   0.0069444
        k(   40) = (   0.5892557   0.0000000  -0.0000000), wk =   0.0034722
        k(   41) = (  -0.0589256  -0.6481812   0.6481812), wk =   0.0138889
        k(   42) = (   0.0000000  -0.5892557   0.5892557), wk =   0.0069444
        k(   43) = (  -0.7071068   0.0000000   0.0000000), wk =   0.0017361
        k(   44) = (   0.2357023   0.1178511   0.0000000), wk =   0.0138889
        k(   45) = (   0.2946278   0.1767767  -0.0589256), wk =   0.0277778
        k(   46) = (   0.3535534   0.2357023  -0.1178511), wk =   0.0277778
        k(   47) = (  -0.2946278  -0.4124790   0.5303301), wk =   0.0277778
        k(   48) = (  -0.2357023  -0.3535534   0.4714045), wk =   0.0138889
        k(   49) = (   0.3535534   0.1178511   0.0000000), wk =   0.0138889
        k(   50) = (   0.4124790   0.1767767  -0.0589256), wk =   0.0277778
        k(   51) = (  -0.2357023  -0.4714045   0.5892557), wk =   0.0277778
        k(   52) = (  -0.1767767  -0.4124790   0.5303301), wk =   0.0277778
        k(   53) = (  -0.1178511  -0.3535534   0.4714045), wk =   0.0277778
        k(   54) = (  -0.0589256  -0.2946278   0.4124790), wk =   0.0277778
        k(   55) = (   0.0000000  -0.2357023   0.3535534), wk =   0.0138889
        k(   56) = (   0.4714045   0.1178511  -0.0000000), wk =   0.0138889
        k(   57) = (  -0.1767767  -0.5303301   0.6481812), wk =   0.0277778
        k(   58) = (  -0.1178511  -0.4714045   0.5892557), wk =   0.0277778
        k(   59) = (  -0.0589256  -0.4124790   0.5303301), wk =   0.0277778
        k(   60) = (  -0.0000000  -0.3535534   0.4714045), wk =   0.0138889
        k(   61) = (  -0.1178511  -0.5892557   0.7071068), wk =   0.0138889
        k(   62) = (  -0.0589256  -0.5303301   0.6481812), wk =   0.0277778
        k(   63) = (  -0.0000000  -0.4714045   0.5892557), wk =   0.0138889
        k(   64) = (  -0.7071068   0.1178511  -0.0000000), wk =   0.0069444
        k(   65) = (  -0.2357023  -0.4714045   0.7071068), wk =   0.0138889
        k(   66) = (  -0.1767767  -0.4124790   0.6481812), wk =   0.0277778
        k(   67) = (  -0.1178511  -0.3535534   0.5892557), wk =   0.0138889
        k(   68) = (  -0.1178511  -0.4714045   0.7071068), wk =   0.0138889
        k(   69) = (  -0.0589256  -0.4124790   0.6481812), wk =   0.0277778
        k(   70) = (   0.0000000  -0.3535534   0.5892557), wk =   0.0138889
        k(   71) = (  -0.7071068   0.2357023   0.0000000), wk =   0.0069444
        k(   72) = (  -0.7071068   0.3535534   0.0000000), wk =   0.0034722

                       cryst. coord.
        k(    1) = (   0.0000000   0.0000000   0.0000000), wk =   0.0005787
        k(    2) = (   0.0000000   0.0000000   0.0833333), wk =   0.0046296
        k(    3) = (   0.0000000   0.0000000   0.1666667), wk =   0.0046296
        k(    4) = (   0.0000000   0.0000000   0.2500000), wk =   0.0046296
        k(    5) = (   0.0000000   0.0000000   0.3333333), wk =   0.0046296
        k(    6) = (  -0.0000000  -0.0000000   0.4166667), wk =   0.0046296
        k(    7) = (  -0.0000000  -0.0000000  -0.5000000), wk =   0.0023148
        k(    8) = (  -0.0000000   0.0833333   0.0833333), wk =   0.0034722
        k(    9) = (   0.0000000   0.0833333   0.1666667), wk =   0.0138889
        k(   10) = (  -0.0000000   0.0833333   0.2500000), wk =   0.0138889
        k(   11) = (   0.0000000   0.0833333   0.3333333), wk =   0.0138889
        k(   12) = (  -0.0000000   0.0833333   0.4166667), wk =   0.0138889
        k(   13) = (  -0.0000000   0.0833333  -0.5000000), wk =   0.0138889
        k(   14) = (  -0.0000000   0.0833333  -0.4166667), wk =   0.0138889
        k(   15) = (  -0.0000000   0.0833333  -0.3333333), wk =   0.0138889
        k(   16) = (  -0.0000000   0.0833333  -0.2500000), wk =   0.0138889
        k(   17) = (  -0.0000000   0.0833333  -0.1666667), wk =   0.0138889
        k(   18) = (   0.0000000   0.0833333  -0.0833333), wk =   0.0069444
        k(   19) = (  -0.0000000   0.1666667   0.1666667), wk =   0.0034722
        k(   20) = (  -0.0000000   0.1666667   0.2500000), wk =   0.0138889
        k(   21) = (   0.0000000   0.1666667   0.3333333), wk =   0.0138889
        k(   22) = (  -0.0000000   0.1666667   0.4166667), wk =   0.0138889
        k(   23) = (  -0.0000000   0.1666667  -0.5000000), wk =   0.0138889
        k(   24) = (  -0.0000000   0.1666667  -0.4166667), wk =   0.0138889
        k(   25) = (  -0.0000000   0.1666667  -0.3333333), wk =   0.0138889
        k(   26) = (   0.0000000   0.1666667  -0.2500000), wk =   0.0138889
        k(   27) = (  -0.0000000   0.1666667  -0.1666667), wk =   0.0069444
        k(   28) = (   0.0000000   0.2500000   0.2500000), wk =   0.0034722
        k(   29) = (   0.0000000   0.2500000   0.3333333), wk =   0.0138889
        k(   30) = (  -0.0000000   0.2500000   0.4166667), wk =   0.0138889
        k(   31) = (   0.0000000   0.2500000  -0.5000000), wk =   0.0138889
        k(   32) = (  -0.0000000   0.2500000  -0.4166667), wk =   0.0138889
        k(   33) = (  -0.0000000   0.2500000  -0.3333333), wk =   0.0138889
        k(   34) = (  -0.0000000   0.2500000  -0.2500000), wk =   0.0069444
        k(   35) = (  -0.0000000   0.3333333   0.3333333), wk =   0.0034722
        k(   36) = (  -0.0000000   0.3333333   0.4166667), wk =   0.0138889
        k(   37) = (   0.0000000   0.3333333  -0.5000000), wk =   0.0138889
        k(   38) = (  -0.0000000   0.3333333  -0.4166667), wk =   0.0138889
        k(   39) = (   0.0000000   0.3333333  -0.3333333), wk =   0.0069444
        k(   40) = (   0.0000000   0.4166667   0.4166667), wk =   0.0034722
        k(   41) = (  -0.0000000   0.4166667  -0.5000000), wk =   0.0138889
        k(   42) = (   0.0000000   0.4166667  -0.4166667), wk =   0.0069444
        k(   43) = (   0.0000000  -0.5000000  -0.5000000), wk =   0.0017361
        k(   44) = (   0.0833333   0.1666667   0.2500000), wk =   0.0138889
        k(   45) = (   0.0833333   0.1666667   0.3333333), wk =   0.0277778
        k(   46) = (   0.0833333   0.1666667   0.4166667), wk =   0.0277778
        k(   47) = (   0.0833333   0.1666667  -0.5000000), wk =   0.0277778
        k(   48) = (   0.0833333   0.1666667  -0.4166667), wk =   0.0138889
        k(   49) = (   0.0833333   0.2500000   0.3333333), wk =   0.0138889
        k(   50) = (   0.0833333   0.2500000   0.4166667), wk =   0.0277778
        k(   51) = (   0.0833333   0.2500000  -0.5000000), wk =   0.0277778
        k(   52) = (   0.0833333   0.2500000  -0.4166667), wk =   0.0277778
        k(   53) = (   0.0833333   0.2500000  -0.3333333), wk =   0.0277778
        k(   54) = (   0.0833333   0.2500000  -0.2500000), wk =   0.0277778
        k(   55) = (   0.0833333   0.2500000  -0.1666667), wk =   0.0138889
        k(   56) = (   0.0833333   0.3333333   0.4166667), wk =   0.0138889
        k(   57) = (   0.0833333   0.3333333  -0.5000000), wk =   0.0277778
        k(   58) = (   0.0833333   0.3333333  -0.4166667), wk =   0.0277778
        k(   59) = (   0.0833333   0.3333333  -0.3333333), wk =   0.0277778
        k(   60) = (   0.0833333   0.3333333  -0.2500000), wk =   0.0138889
        k(   61) = (   0.0833333   0.4166667  -0.5000000), wk =   0.0138889
        k(   62) = (   0.0833333   0.4166667  -0.4166667), wk =   0.0277778
        k(   63) = (   0.0833333   0.4166667  -0.3333333), wk =   0.0138889
        k(   64) = (   0.0833333  -0.5000000  -0.4166667), wk =   0.0069444
        k(   65) = (   0.1666667   0.3333333  -0.5000000), wk =   0.0138889
        k(   66) = (   0.1666667   0.3333333  -0.4166667), wk =   0.0277778
        k(   67) = (   0.1666667   0.3333333  -0.3333333), wk =   0.0138889
        k(   68) = (   0.1666667   0.4166667  -0.4166667), wk =   0.0138889
        k(   69) = (   0.1666667   0.4166667  -0.3333333), wk =   0.0277778
        k(   70) = (   0.1666667   0.4166667  -0.2500000), wk =   0.0138889
        k(   71) = (   0.1666667  -0.5000000  -0.3333333), wk =   0.0069444
        k(   72) = (   0.2500000  -0.5000000  -0.2500000), wk =   0.0034722

     Dense  grid:    55369 G-vectors     FFT dimensions: (  54,  54,  54)

     Smooth grid:    19603 G-vectors     FFT dimensions: (  40,  40,  40)

     Dynamical RAM for                 wfc:       0.17 MB

     Dynamical RAM for     wfc (w. buffer):       3.14 MB

     Dynamical RAM for           str. fact:       0.48 MB

     Dynamical RAM for           local pot:       0.00 MB

     Dynamical RAM for          nlocal pot:       0.38 MB

     Dynamical RAM for                qrad:       6.42 MB

     Dynamical RAM for          rho,v,vnew:       1.79 MB

     Dynamical RAM for               rhoin:       0.60 MB

     Dynamical RAM for            rho*nmix:       3.86 MB

     Dynamical RAM for           G-vectors:       0.47 MB

     Dynamical RAM for          h,s,v(r/c):       0.18 MB

     Dynamical RAM for          <psi|beta>:       0.03 MB

     Dynamical RAM for                 psi:       0.33 MB

     Dynamical RAM for                hpsi:       0.33 MB

     Dynamical RAM for                spsi:       0.33 MB

     Dynamical RAM for      wfcinit/wfcrot:       0.45 MB

     Dynamical RAM for           addusdens:       3.05 MB

     Dynamical RAM for          addusforce:       2.95 MB

     Dynamical RAM for         addusstress:       3.16 MB

     Estimated static dynamical RAM per process >      14.96 MB

     Estimated max dynamical RAM per process >      21.98 MB

     Estimated total dynamical RAM >       1.02 GB

     Check: negative core charge=   -0.000004
     Generating pointlists ...
     new r_m :   0.2526 (alat units)  2.1062 (a.u.) for type    1
     new r_m :   0.2526 (alat units)  2.1062 (a.u.) for type    2
     new r_m :   0.2526 (alat units)  2.1062 (a.u.) for type    3
     new r_m :   0.2526 (alat units)  2.1062 (a.u.) for type    4

     Initial potential from superposition of free atoms

     starting charge      49.9955, renormalised to      52.0000

     negative rho (up, down):  1.933E-03 8.320E-04
     Starting wfcs are   39 randomized atomic wfcs

     total cpu time spent up to now is        1.7 secs

     per-process dynamical memory:    28.5 Mb

     Self-consistent Calculation

     iteration #  1     ecut=    50.00 Ry     beta= 0.40
     Davidson diagonalization with overlap

---- Real-time Memory Report at c_bands before calling an iterative solver
            64 MiB given to the printing process from OS
            27 MiB allocation reported by mallinfo(arena+hblkhd)
        490053 MiB available memory on the node where the printing process lives
------------------
     ethr =  1.00E-02,  avg # of iterations =  2.8

     negative rho (up, down):  6.852E-04 1.340E-03

     total cpu time spent up to now is        2.4 secs

     total energy              =    -580.25075948 Ry
     estimated scf accuracy    <       7.64150454 Ry

     total magnetization       =     7.12 Bohr mag/cell
     absolute magnetization    =     7.18 Bohr mag/cell

     iteration #  2     ecut=    50.00 Ry     beta= 0.40
     Davidson diagonalization with overlap

---- Real-time Memory Report at c_bands before calling an iterative solver
            70 MiB given to the printing process from OS
            32 MiB allocation reported by mallinfo(arena+hblkhd)
        489743 MiB available memory on the node where the printing process lives
------------------
     ethr =  1.00E-02,  avg # of iterations =  5.1

     negative rho (up, down):  5.000E-04 1.915E-03

     total cpu time spent up to now is        3.2 secs

     total energy              =    -581.07923684 Ry
     estimated scf accuracy    <      31.36546057 Ry

     total magnetization       =     3.14 Bohr mag/cell
     absolute magnetization    =     3.18 Bohr mag/cell

     iteration #  3     ecut=    50.00 Ry     beta= 0.40
     Davidson diagonalization with overlap

---- Real-time Memory Report at c_bands before calling an iterative solver
            70 MiB given to the printing process from OS
            32 MiB allocation reported by mallinfo(arena+hblkhd)
        489737 MiB available memory on the node where the printing process lives
------------------
     ethr =  1.00E-02,  avg # of iterations =  3.3

     negative rho (up, down):  4.251E-04 1.417E-03

     total cpu time spent up to now is        3.8 secs

     total energy              =    -583.05840847 Ry
     estimated scf accuracy    <      15.17673834 Ry

     total magnetization       =     0.90 Bohr mag/cell
     absolute magnetization    =     1.49 Bohr mag/cell

     iteration #  4     ecut=    50.00 Ry     beta= 0.40
     Davidson diagonalization with overlap

---- Real-time Memory Report at c_bands before calling an iterative solver
            71 MiB given to the printing process from OS
            32 MiB allocation reported by mallinfo(arena+hblkhd)
        489722 MiB available memory on the node where the printing process lives
------------------
     ethr =  1.00E-02,  avg # of iterations =  1.8

     negative rho (up, down):  3.484E-04 2.173E-03

     total cpu time spent up to now is        4.3 secs

     total energy              =    -583.57981430 Ry
     estimated scf accuracy    <       1.63457964 Ry

     total magnetization       =     5.73 Bohr mag/cell
     absolute magnetization    =     5.81 Bohr mag/cell

     iteration #  5     ecut=    50.00 Ry     beta= 0.40
     Davidson diagonalization with overlap

---- Real-time Memory Report at c_bands before calling an iterative solver
            71 MiB given to the printing process from OS
            32 MiB allocation reported by mallinfo(arena+hblkhd)
        489718 MiB available memory on the node where the printing process lives
------------------
     ethr =  3.14E-03,  avg # of iterations =  3.3

     negative rho (up, down):  2.993E-04 6.057E-03

     total cpu time spent up to now is        4.9 secs

     total energy              =    -583.55630351 Ry
     estimated scf accuracy    <       0.58940049 Ry

     total magnetization       =     5.90 Bohr mag/cell
     absolute magnetization    =     6.00 Bohr mag/cell

     iteration #  6     ecut=    50.00 Ry     beta= 0.40
     Davidson diagonalization with overlap

---- Real-time Memory Report at c_bands before calling an iterative solver
            72 MiB given to the printing process from OS
            32 MiB allocation reported by mallinfo(arena+hblkhd)
        489714 MiB available memory on the node where the printing process lives
------------------
     ethr =  1.13E-03,  avg # of iterations =  9.1

     negative rho (up, down):  2.799E-04 5.867E-03

     total cpu time spent up to now is        6.0 secs

     total energy              =    -584.10506478 Ry
     estimated scf accuracy    <       7.20422262 Ry

     total magnetization       =     3.33 Bohr mag/cell
     absolute magnetization    =     3.42 Bohr mag/cell

     iteration #  7     ecut=    50.00 Ry     beta= 0.40
     Davidson diagonalization with overlap

---- Real-time Memory Report at c_bands before calling an iterative solver
            72 MiB given to the printing process from OS
            32 MiB allocation reported by mallinfo(arena+hblkhd)
        489707 MiB available memory on the node where the printing process lives
------------------
     ethr =  1.13E-03,  avg # of iterations =  1.0

     negative rho (up, down):  3.580E-04 5.702E-03

     total cpu time spent up to now is        6.4 secs

     total energy              =    -583.97678829 Ry
     estimated scf accuracy    <       6.02126147 Ry

     total magnetization       =     3.30 Bohr mag/cell
     absolute magnetization    =     3.41 Bohr mag/cell

     iteration #  8     ecut=    50.00 Ry     beta= 0.40
     Davidson diagonalization with overlap

---- Real-time Memory Report at c_bands before calling an iterative solver
            72 MiB given to the printing process from OS
            33 MiB allocation reported by mallinfo(arena+hblkhd)
        489704 MiB available memory on the node where the printing process lives
------------------
     ethr =  1.13E-03,  avg # of iterations =  1.2

     negative rho (up, down):  9.519E-04 4.207E-03

     total cpu time spent up to now is        6.9 secs

     total energy              =    -583.51625090 Ry
     estimated scf accuracy    <       3.85310329 Ry

     total magnetization       =     3.37 Bohr mag/cell
     absolute magnetization    =     3.55 Bohr mag/cell

     iteration #  9     ecut=    50.00 Ry     beta= 0.40
     Davidson diagonalization with overlap

---- Real-time Memory Report at c_bands before calling an iterative solver
            72 MiB given to the printing process from OS
            33 MiB allocation reported by mallinfo(arena+hblkhd)
        489701 MiB available memory on the node where the printing process lives
------------------
     ethr =  1.13E-03,  avg # of iterations =  6.4

     negative rho (up, down):  7.906E-04 4.103E-03

     total cpu time spent up to now is        7.7 secs

     total energy              =    -583.81192618 Ry
     estimated scf accuracy    <       0.88442452 Ry

     total magnetization       =     4.34 Bohr mag/cell
     absolute magnetization    =     4.53 Bohr mag/cell

     iteration # 10     ecut=    50.00 Ry     beta= 0.40
     Davidson diagonalization with overlap

---- Real-time Memory Report at c_bands before calling an iterative solver
            73 MiB given to the printing process from OS
            33 MiB allocation reported by mallinfo(arena+hblkhd)
        489696 MiB available memory on the node where the printing process lives
------------------
     ethr =  1.13E-03,  avg # of iterations =  1.0

     negative rho (up, down):  7.603E-04 4.069E-03

     total cpu time spent up to now is        8.2 secs

     total energy              =    -583.83574785 Ry
     estimated scf accuracy    <       0.09724062 Ry

     total magnetization       =     3.68 Bohr mag/cell
     absolute magnetization    =     4.01 Bohr mag/cell

     iteration # 11     ecut=    50.00 Ry     beta= 0.40
     Davidson diagonalization with overlap

---- Real-time Memory Report at c_bands before calling an iterative solver
            73 MiB given to the printing process from OS
            33 MiB allocation reported by mallinfo(arena+hblkhd)
        489695 MiB available memory on the node where the printing process lives
------------------
     ethr =  1.87E-04,  avg # of iterations =  4.9

     negative rho (up, down):  8.351E-04 3.478E-03

     total cpu time spent up to now is        8.9 secs

     total energy              =    -583.84670284 Ry
     estimated scf accuracy    <       0.10717217 Ry

     total magnetization       =     3.16 Bohr mag/cell
     absolute magnetization    =     3.71 Bohr mag/cell

     iteration # 12     ecut=    50.00 Ry     beta= 0.40
     Davidson diagonalization with overlap

---- Real-time Memory Report at c_bands before calling an iterative solver
            73 MiB given to the printing process from OS
            33 MiB allocation reported by mallinfo(arena+hblkhd)
        489693 MiB available memory on the node where the printing process lives
------------------
     ethr =  1.87E-04,  avg # of iterations =  1.0

     negative rho (up, down):  8.497E-04 2.732E-03

     total cpu time spent up to now is        9.3 secs

     total energy              =    -583.83144417 Ry
     estimated scf accuracy    <       0.07046245 Ry

     total magnetization       =     2.99 Bohr mag/cell
     absolute magnetization    =     3.58 Bohr mag/cell

     iteration # 13     ecut=    50.00 Ry     beta= 0.40
     Davidson diagonalization with overlap

---- Real-time Memory Report at c_bands before calling an iterative solver
            73 MiB given to the printing process from OS
            33 MiB allocation reported by mallinfo(arena+hblkhd)
        489691 MiB available memory on the node where the printing process lives
------------------
     ethr =  1.36E-04,  avg # of iterations =  5.5

     negative rho (up, down):  8.584E-04 2.769E-03

     total cpu time spent up to now is       10.0 secs

     total energy              =    -583.84329349 Ry
     estimated scf accuracy    <       0.06058193 Ry

     total magnetization       =     2.98 Bohr mag/cell
     absolute magnetization    =     3.33 Bohr mag/cell

     iteration # 14     ecut=    50.00 Ry     beta= 0.40
     Davidson diagonalization with overlap

---- Real-time Memory Report at c_bands before calling an iterative solver
            73 MiB given to the printing process from OS
            33 MiB allocation reported by mallinfo(arena+hblkhd)
        489689 MiB available memory on the node where the printing process lives
------------------
     ethr =  1.17E-04,  avg # of iterations =  1.0

     negative rho (up, down):  6.824E-04 2.965E-03

     total cpu time spent up to now is       10.5 secs

     total energy              =    -583.84273755 Ry
     estimated scf accuracy    <       0.01894939 Ry

     total magnetization       =     2.84 Bohr mag/cell
     absolute magnetization    =     3.30 Bohr mag/cell

     iteration # 15     ecut=    50.00 Ry     beta= 0.40
     Davidson diagonalization with overlap

---- Real-time Memory Report at c_bands before calling an iterative solver
            73 MiB given to the printing process from OS
            33 MiB allocation reported by mallinfo(arena+hblkhd)
        489688 MiB available memory on the node where the printing process lives
------------------
     ethr =  3.64E-05,  avg # of iterations =  2.9

     negative rho (up, down):  5.217E-04 2.610E-03

     total cpu time spent up to now is       11.1 secs

     total energy              =    -583.84578561 Ry
     estimated scf accuracy    <       0.01540975 Ry

     total magnetization       =     2.96 Bohr mag/cell
     absolute magnetization    =     3.31 Bohr mag/cell

     iteration # 16     ecut=    50.00 Ry     beta= 0.40
     Davidson diagonalization with overlap

---- Real-time Memory Report at c_bands before calling an iterative solver
            73 MiB given to the printing process from OS
            33 MiB allocation reported by mallinfo(arena+hblkhd)
        489687 MiB available memory on the node where the printing process lives
------------------
     ethr =  2.96E-05,  avg # of iterations =  4.3

     negative rho (up, down):  6.583E-04 2.715E-03

     total cpu time spent up to now is       11.9 secs

     total energy              =    -583.84404158 Ry
     estimated scf accuracy    <       0.02071819 Ry

     total magnetization       =     2.66 Bohr mag/cell
     absolute magnetization    =     2.97 Bohr mag/cell

     iteration # 17     ecut=    50.00 Ry     beta= 0.40
     Davidson diagonalization with overlap

---- Real-time Memory Report at c_bands before calling an iterative solver
            73 MiB given to the printing process from OS
            33 MiB allocation reported by mallinfo(arena+hblkhd)
        489686 MiB available memory on the node where the printing process lives
------------------
     ethr =  2.96E-05,  avg # of iterations =  2.2

     negative rho (up, down):  6.211E-04 2.726E-03

     total cpu time spent up to now is       12.4 secs

     total energy              =    -583.84618835 Ry
     estimated scf accuracy    <       0.00510755 Ry

     total magnetization       =     2.57 Bohr mag/cell
     absolute magnetization    =     2.99 Bohr mag/cell

     iteration # 18     ecut=    50.00 Ry     beta= 0.40
     Davidson diagonalization with overlap

---- Real-time Memory Report at c_bands before calling an iterative solver
            74 MiB given to the printing process from OS
            33 MiB allocation reported by mallinfo(arena+hblkhd)
        489684 MiB available memory on the node where the printing process lives
------------------
     ethr =  9.82E-06,  avg # of iterations =  2.6

     negative rho (up, down):  6.470E-04 2.735E-03

     total cpu time spent up to now is       13.0 secs

     total energy              =    -583.84461682 Ry
     estimated scf accuracy    <       0.00726046 Ry

     total magnetization       =     2.50 Bohr mag/cell
     absolute magnetization    =     2.93 Bohr mag/cell

     iteration # 19     ecut=    50.00 Ry     beta= 0.40
     Davidson diagonalization with overlap

---- Real-time Memory Report at c_bands before calling an iterative solver
            74 MiB given to the printing process from OS
            33 MiB allocation reported by mallinfo(arena+hblkhd)
        489681 MiB available memory on the node where the printing process lives
------------------
     ethr =  9.82E-06,  avg # of iterations =  1.7

     negative rho (up, down):  6.407E-04 2.650E-03

     total cpu time spent up to now is       13.6 secs

     total energy              =    -583.84605679 Ry
     estimated scf accuracy    <       0.00560009 Ry

     total magnetization       =     2.79 Bohr mag/cell
     absolute magnetization    =     3.11 Bohr mag/cell

     iteration # 20     ecut=    50.00 Ry     beta= 0.40
     Davidson diagonalization with overlap

---- Real-time Memory Report at c_bands before calling an iterative solver
            74 MiB given to the printing process from OS
            33 MiB allocation reported by mallinfo(arena+hblkhd)
        489681 MiB available memory on the node where the printing process lives
------------------
     ethr =  9.82E-06,  avg # of iterations =  1.9

     negative rho (up, down):  4.481E-04 3.021E-03

     total cpu time spent up to now is       14.1 secs

     total energy              =    -583.84645637 Ry
     estimated scf accuracy    <       0.01005158 Ry

     total magnetization       =     2.79 Bohr mag/cell
     absolute magnetization    =     3.10 Bohr mag/cell

     iteration # 21     ecut=    50.00 Ry     beta= 0.40
     Davidson diagonalization with overlap

---- Real-time Memory Report at c_bands before calling an iterative solver
            74 MiB given to the printing process from OS
            33 MiB allocation reported by mallinfo(arena+hblkhd)
        489681 MiB available memory on the node where the printing process lives
------------------
     ethr =  9.82E-06,  avg # of iterations =  6.9

     negative rho (up, down):  7.364E-04 2.379E-03

     total cpu time spent up to now is       15.0 secs

     total energy              =    -583.83662433 Ry
     estimated scf accuracy    <       0.09329972 Ry

     total magnetization       =     3.39 Bohr mag/cell
     absolute magnetization    =     3.53 Bohr mag/cell

     iteration # 22     ecut=    50.00 Ry     beta= 0.40
     Davidson diagonalization with overlap

---- Real-time Memory Report at c_bands before calling an iterative solver
            74 MiB given to the printing process from OS
            33 MiB allocation reported by mallinfo(arena+hblkhd)
        489680 MiB available memory on the node where the printing process lives
------------------
     ethr =  9.82E-06,  avg # of iterations =  5.6

     negative rho (up, down):  7.772E-04 2.194E-03

     total cpu time spent up to now is       15.7 secs

     total energy              =    -583.84773013 Ry
     estimated scf accuracy    <       0.00159917 Ry

     total magnetization       =     2.14 Bohr mag/cell
     absolute magnetization    =     2.75 Bohr mag/cell

     iteration # 23     ecut=    50.00 Ry     beta= 0.40
     Davidson diagonalization with overlap

---- Real-time Memory Report at c_bands before calling an iterative solver
            74 MiB given to the printing process from OS
            33 MiB allocation reported by mallinfo(arena+hblkhd)
        489678 MiB available memory on the node where the printing process lives
------------------
     ethr =  3.08E-06,  avg # of iterations =  2.9

     negative rho (up, down):  7.108E-04 2.425E-03

     total cpu time spent up to now is       16.4 secs

     total energy              =    -583.84627030 Ry
     estimated scf accuracy    <       0.00446150 Ry

     total magnetization       =     2.17 Bohr mag/cell
     absolute magnetization    =     2.76 Bohr mag/cell

     iteration # 24     ecut=    50.00 Ry     beta= 0.40
     Davidson diagonalization with overlap

---- Real-time Memory Report at c_bands before calling an iterative solver
            74 MiB given to the printing process from OS
            33 MiB allocation reported by mallinfo(arena+hblkhd)
        489676 MiB available memory on the node where the printing process lives
------------------
     ethr =  3.08E-06,  avg # of iterations =  1.8

     negative rho (up, down):  5.942E-04 2.354E-03

     total cpu time spent up to now is       16.9 secs

     total energy              =    -583.84085586 Ry
     estimated scf accuracy    <       0.00136609 Ry

     total magnetization       =     2.36 Bohr mag/cell
     absolute magnetization    =     2.86 Bohr mag/cell

     iteration # 25     ecut=    50.00 Ry     beta= 0.40
     Davidson diagonalization with overlap

---- Real-time Memory Report at c_bands before calling an iterative solver
            74 MiB given to the printing process from OS
            33 MiB allocation reported by mallinfo(arena+hblkhd)
        489674 MiB available memory on the node where the printing process lives
------------------
     ethr =  2.63E-06,  avg # of iterations =  7.2

     negative rho (up, down):  4.408E-04 2.854E-03

     total cpu time spent up to now is       18.0 secs

     total energy              =    -583.83430332 Ry
     estimated scf accuracy    <       0.00374388 Ry

     total magnetization       =     2.85 Bohr mag/cell
     absolute magnetization    =     3.11 Bohr mag/cell

     iteration # 26     ecut=    50.00 Ry     beta= 0.40
     Davidson diagonalization with overlap

---- Real-time Memory Report at c_bands before calling an iterative solver
            74 MiB given to the printing process from OS
            33 MiB allocation reported by mallinfo(arena+hblkhd)
        489673 MiB available memory on the node where the printing process lives
------------------
     ethr =  2.63E-06,  avg # of iterations =  9.1

     negative rho (up, down):  1.117E-03 2.347E-03

     total cpu time spent up to now is       19.2 secs

     total energy              =    -583.74606988 Ry
     estimated scf accuracy    <       0.00218414 Ry

     total magnetization       =     3.51 Bohr mag/cell
     absolute magnetization    =     3.66 Bohr mag/cell

     iteration # 27     ecut=    50.00 Ry     beta= 0.40
     Davidson diagonalization with overlap

---- Real-time Memory Report at c_bands before calling an iterative solver
            74 MiB given to the printing process from OS
            33 MiB allocation reported by mallinfo(arena+hblkhd)
        489671 MiB available memory on the node where the printing process lives
------------------
     ethr =  2.63E-06,  avg # of iterations = 13.0

     negative rho (up, down):  7.792E-04 2.120E-03

     total cpu time spent up to now is       20.6 secs

     total energy              =    -583.80043353 Ry
     estimated scf accuracy    <       0.04419317 Ry

     total magnetization       =     0.18 Bohr mag/cell
     absolute magnetization    =     4.80 Bohr mag/cell

     iteration # 28     ecut=    50.00 Ry     beta= 0.40
     Davidson diagonalization with overlap

---- Real-time Memory Report at c_bands before calling an iterative solver
            74 MiB given to the printing process from OS
            33 MiB allocation reported by mallinfo(arena+hblkhd)
        489661 MiB available memory on the node where the printing process lives
------------------
     ethr =  2.63E-06,  avg # of iterations = 11.0

     negative rho (up, down):  7.317E-04 1.987E-03

     total cpu time spent up to now is       22.0 secs

     total energy              =    -583.84603848 Ry
     estimated scf accuracy    <       0.01846910 Ry

     total magnetization       =     2.25 Bohr mag/cell
     absolute magnetization    =     2.76 Bohr mag/cell

     iteration # 29     ecut=    50.00 Ry     beta= 0.40
     Davidson diagonalization with overlap

---- Real-time Memory Report at c_bands before calling an iterative solver
            74 MiB given to the printing process from OS
            33 MiB allocation reported by mallinfo(arena+hblkhd)
        489660 MiB available memory on the node where the printing process lives
------------------
     ethr =  2.63E-06,  avg # of iterations =  4.8

     negative rho (up, down):  6.904E-04 1.909E-03

     total cpu time spent up to now is       22.8 secs

     total energy              =    -583.84498507 Ry
     estimated scf accuracy    <       0.01312315 Ry

     total magnetization       =     2.49 Bohr mag/cell
     absolute magnetization    =     2.88 Bohr mag/cell

     iteration # 30     ecut=    50.00 Ry     beta= 0.40
     Davidson diagonalization with overlap

---- Real-time Memory Report at c_bands before calling an iterative solver
            74 MiB given to the printing process from OS
            33 MiB allocation reported by mallinfo(arena+hblkhd)
        489659 MiB available memory on the node where the printing process lives
------------------
     ethr =  2.63E-06,  avg # of iterations =  5.4

     negative rho (up, down):  6.254E-04 1.749E-03

     total cpu time spent up to now is       23.6 secs

     total energy              =    -583.84186278 Ry
     estimated scf accuracy    <       0.00514814 Ry

     total magnetization       =     2.58 Bohr mag/cell
     absolute magnetization    =     2.91 Bohr mag/cell

     iteration # 31     ecut=    50.00 Ry     beta= 0.40
     Davidson diagonalization with overlap

---- Real-time Memory Report at c_bands before calling an iterative solver
            74 MiB given to the printing process from OS
            33 MiB allocation reported by mallinfo(arena+hblkhd)
        489659 MiB available memory on the node where the printing process lives
------------------
     ethr =  2.63E-06,  avg # of iterations =  5.3

     negative rho (up, down):  5.042E-04 2.328E-03

     total cpu time spent up to now is       24.5 secs

     total energy              =    -583.83408376 Ry
     estimated scf accuracy    <       0.00499297 Ry

     total magnetization       =     2.89 Bohr mag/cell
     absolute magnetization    =     3.08 Bohr mag/cell

     iteration # 32     ecut=    50.00 Ry     beta= 0.40
     Davidson diagonalization with overlap

---- Real-time Memory Report at c_bands before calling an iterative solver
            74 MiB given to the printing process from OS
            33 MiB allocation reported by mallinfo(arena+hblkhd)
        489659 MiB available memory on the node where the printing process lives
------------------
     ethr =  2.63E-06,  avg # of iterations =  9.9

     negative rho (up, down):  5.252E-04 2.212E-03

     total cpu time spent up to now is       25.7 secs

     total energy              =    -583.84022726 Ry
     estimated scf accuracy    <       0.00678245 Ry

     total magnetization       =     3.42 Bohr mag/cell
     absolute magnetization    =     3.55 Bohr mag/cell

     iteration # 33     ecut=    50.00 Ry     beta= 0.40
     Davidson diagonalization with overlap

---- Real-time Memory Report at c_bands before calling an iterative solver
            74 MiB given to the printing process from OS
            33 MiB allocation reported by mallinfo(arena+hblkhd)
        489659 MiB available memory on the node where the printing process lives
------------------
     ethr =  2.63E-06,  avg # of iterations =  1.5

     negative rho (up, down):  5.332E-04 2.206E-03

     total cpu time spent up to now is       26.2 secs

     total energy              =    -583.84049963 Ry
     estimated scf accuracy    <       0.00577046 Ry

     total magnetization       =     3.33 Bohr mag/cell
     absolute magnetization    =     3.47 Bohr mag/cell

     iteration # 34     ecut=    50.00 Ry     beta= 0.40
     Davidson diagonalization with overlap

---- Real-time Memory Report at c_bands before calling an iterative solver
            74 MiB given to the printing process from OS
            33 MiB allocation reported by mallinfo(arena+hblkhd)
        489659 MiB available memory on the node where the printing process lives
------------------
     ethr =  2.63E-06,  avg # of iterations =  1.0

     negative rho (up, down):  6.127E-04 1.782E-03

     total cpu time spent up to now is       26.6 secs

     total energy              =    -583.84043188 Ry
     estimated scf accuracy    <       0.00599483 Ry

     total magnetization       =     3.32 Bohr mag/cell
     absolute magnetization    =     3.46 Bohr mag/cell

     iteration # 35     ecut=    50.00 Ry     beta= 0.40
     Davidson diagonalization with overlap

---- Real-time Memory Report at c_bands before calling an iterative solver
            74 MiB given to the printing process from OS
            33 MiB allocation reported by mallinfo(arena+hblkhd)
        489658 MiB available memory on the node where the printing process lives
------------------
     ethr =  2.63E-06,  avg # of iterations =  7.8

     negative rho (up, down):  6.099E-04 1.801E-03

     total cpu time spent up to now is       27.8 secs

     total energy              =    -583.84390204 Ry
     estimated scf accuracy    <       0.00259682 Ry

     total magnetization       =     2.87 Bohr mag/cell
     absolute magnetization    =     3.06 Bohr mag/cell

     iteration # 36     ecut=    50.00 Ry     beta= 0.40
     Davidson diagonalization with overlap

---- Real-time Memory Report at c_bands before calling an iterative solver
            74 MiB given to the printing process from OS
            33 MiB allocation reported by mallinfo(arena+hblkhd)
        489657 MiB available memory on the node where the printing process lives
------------------
     ethr =  2.63E-06,  avg # of iterations =  1.1

     negative rho (up, down):  8.028E-04 2.161E-03

     total cpu time spent up to now is       28.3 secs

     total energy              =    -583.83298449 Ry
     estimated scf accuracy    <       0.00222676 Ry

     total magnetization       =     2.84 Bohr mag/cell
     absolute magnetization    =     3.03 Bohr mag/cell

     iteration # 37     ecut=    50.00 Ry     beta= 0.40
     Davidson diagonalization with overlap

---- Real-time Memory Report at c_bands before calling an iterative solver
            74 MiB given to the printing process from OS
            33 MiB allocation reported by mallinfo(arena+hblkhd)
        489657 MiB available memory on the node where the printing process lives
------------------
     ethr =  2.63E-06,  avg # of iterations = 11.7

     negative rho (up, down):  8.351E-04 2.211E-03

     total cpu time spent up to now is       29.6 secs

     total energy              =    -583.85517630 Ry
     estimated scf accuracy    <       0.00374777 Ry

     total magnetization       =     1.50 Bohr mag/cell
     absolute magnetization    =     2.82 Bohr mag/cell

     iteration # 38     ecut=    50.00 Ry     beta= 0.40
     Davidson diagonalization with overlap

---- Real-time Memory Report at c_bands before calling an iterative solver
            74 MiB given to the printing process from OS
            33 MiB allocation reported by mallinfo(arena+hblkhd)
        489657 MiB available memory on the node where the printing process lives
------------------
     ethr =  2.63E-06,  avg # of iterations =  2.7

     negative rho (up, down):  7.274E-04 2.073E-03

     total cpu time spent up to now is       30.3 secs

     total energy              =    -583.84276129 Ry
     estimated scf accuracy    <       0.00533317 Ry

     total magnetization       =     1.30 Bohr mag/cell
     absolute magnetization    =     3.08 Bohr mag/cell

     iteration # 39     ecut=    50.00 Ry     beta= 0.40
     Davidson diagonalization with overlap

---- Real-time Memory Report at c_bands before calling an iterative solver
            74 MiB given to the printing process from OS
            33 MiB allocation reported by mallinfo(arena+hblkhd)
        489657 MiB available memory on the node where the printing process lives
------------------
     ethr =  2.63E-06,  avg # of iterations =  6.1

     negative rho (up, down):  6.257E-04 1.956E-03

     total cpu time spent up to now is       31.2 secs

     total energy              =    -583.84012210 Ry
     estimated scf accuracy    <       0.00234057 Ry

     total magnetization       =     2.06 Bohr mag/cell
     absolute magnetization    =     2.59 Bohr mag/cell

     iteration # 40     ecut=    50.00 Ry     beta= 0.40
     Davidson diagonalization with overlap

---- Real-time Memory Report at c_bands before calling an iterative solver
            74 MiB given to the printing process from OS
            33 MiB allocation reported by mallinfo(arena+hblkhd)
        489657 MiB available memory on the node where the printing process lives
------------------
     ethr =  2.63E-06,  avg # of iterations =  7.7

     negative rho (up, down):  5.426E-04 1.947E-03

     total cpu time spent up to now is       32.3 secs

     total energy              =    -583.84008868 Ry
     estimated scf accuracy    <       0.00223168 Ry

     total magnetization       =     2.70 Bohr mag/cell
     absolute magnetization    =     2.93 Bohr mag/cell

     iteration # 41     ecut=    50.00 Ry     beta= 0.40
     Davidson diagonalization with overlap

---- Real-time Memory Report at c_bands before calling an iterative solver
            75 MiB given to the printing process from OS
            33 MiB allocation reported by mallinfo(arena+hblkhd)
        489657 MiB available memory on the node where the printing process lives
------------------
     ethr =  2.63E-06,  avg # of iterations =  7.1

     negative rho (up, down):  4.203E-04 2.643E-03

     total cpu time spent up to now is       33.3 secs

     total energy              =    -583.83163740 Ry
     estimated scf accuracy    <       0.00239875 Ry

     total magnetization       =     3.11 Bohr mag/cell
     absolute magnetization    =     3.25 Bohr mag/cell

     iteration # 42     ecut=    50.00 Ry     beta= 0.40
     Davidson diagonalization with overlap

---- Real-time Memory Report at c_bands before calling an iterative solver
            75 MiB given to the printing process from OS
            33 MiB allocation reported by mallinfo(arena+hblkhd)
        489657 MiB available memory on the node where the printing process lives
------------------
     ethr =  2.63E-06,  avg # of iterations =  9.8

     negative rho (up, down):  3.946E-04 2.792E-03

     total cpu time spent up to now is       34.5 secs

     total energy              =    -583.83528617 Ry
     estimated scf accuracy    <       0.00365290 Ry

     total magnetization       =     3.60 Bohr mag/cell
     absolute magnetization    =     3.73 Bohr mag/cell

     iteration # 43     ecut=    50.00 Ry     beta= 0.40
     Davidson diagonalization with overlap

---- Real-time Memory Report at c_bands before calling an iterative solver
            75 MiB given to the printing process from OS
            33 MiB allocation reported by mallinfo(arena+hblkhd)
        489657 MiB available memory on the node where the printing process lives
------------------
     ethr =  2.63E-06,  avg # of iterations =  2.7

     negative rho (up, down):  4.164E-04 2.641E-03

     total cpu time spent up to now is       35.2 secs

     total energy              =    -583.83671342 Ry
     estimated scf accuracy    <       0.00406055 Ry

     total magnetization       =     3.67 Bohr mag/cell
     absolute magnetization    =     3.80 Bohr mag/cell

     iteration # 44     ecut=    50.00 Ry     beta= 0.40
     Davidson diagonalization with overlap

---- Real-time Memory Report at c_bands before calling an iterative solver
            75 MiB given to the printing process from OS
            33 MiB allocation reported by mallinfo(arena+hblkhd)
        489657 MiB available memory on the node where the printing process lives
------------------
     ethr =  2.63E-06,  avg # of iterations =  1.1

     negative rho (up, down):  4.453E-04 2.463E-03

     total cpu time spent up to now is       35.6 secs

     total energy              =    -583.83820699 Ry
     estimated scf accuracy    <       0.00334829 Ry

     total magnetization       =     3.60 Bohr mag/cell
     absolute magnetization    =     3.73 Bohr mag/cell

     iteration # 45     ecut=    50.00 Ry     beta= 0.40
     Davidson diagonalization with overlap

---- Real-time Memory Report at c_bands before calling an iterative solver
            75 MiB given to the printing process from OS
            33 MiB allocation reported by mallinfo(arena+hblkhd)
        489657 MiB available memory on the node where the printing process lives
------------------
     ethr =  2.63E-06,  avg # of iterations =  2.2

     negative rho (up, down):  4.511E-04 2.402E-03

     total cpu time spent up to now is       36.2 secs

     total energy              =    -583.83883425 Ry
     estimated scf accuracy    <       0.00284336 Ry

     total magnetization       =     3.50 Bohr mag/cell
     absolute magnetization    =     3.63 Bohr mag/cell

     iteration # 46     ecut=    50.00 Ry     beta= 0.40
     Davidson diagonalization with overlap

---- Real-time Memory Report at c_bands before calling an iterative solver
            75 MiB given to the printing process from OS
            33 MiB allocation reported by mallinfo(arena+hblkhd)
        489655 MiB available memory on the node where the printing process lives
------------------
     ethr =  2.63E-06,  avg # of iterations =  1.0

     negative rho (up, down):  4.900E-04 2.043E-03

     total cpu time spent up to now is       36.6 secs

     total energy              =    -583.84010584 Ry
     estimated scf accuracy    <       0.00255098 Ry

     total magnetization       =     3.47 Bohr mag/cell
     absolute magnetization    =     3.60 Bohr mag/cell

     iteration # 47     ecut=    50.00 Ry     beta= 0.40
     Davidson diagonalization with overlap

---- Real-time Memory Report at c_bands before calling an iterative solver
            75 MiB given to the printing process from OS
            33 MiB allocation reported by mallinfo(arena+hblkhd)
        489655 MiB available memory on the node where the printing process lives
------------------
     ethr =  2.63E-06,  avg # of iterations =  4.2

     negative rho (up, down):  7.499E-04 1.947E-03

     total cpu time spent up to now is       37.4 secs

     total energy              =    -583.82003954 Ry
     estimated scf accuracy    <       0.00237899 Ry

     total magnetization       =     3.29 Bohr mag/cell
     absolute magnetization    =     3.42 Bohr mag/cell

     iteration # 48     ecut=    50.00 Ry     beta= 0.40
     Davidson diagonalization with overlap

---- Real-time Memory Report at c_bands before calling an iterative solver
            75 MiB given to the printing process from OS
            33 MiB allocation reported by mallinfo(arena+hblkhd)
        489654 MiB available memory on the node where the printing process lives
------------------
     ethr =  2.63E-06,  avg # of iterations = 11.0

     negative rho (up, down):  8.769E-04 2.158E-03

     total cpu time spent up to now is       38.8 secs

     total energy              =    -583.85385435 Ry
     estimated scf accuracy    <       0.00318642 Ry

     total magnetization       =     1.65 Bohr mag/cell
     absolute magnetization    =     2.51 Bohr mag/cell

     iteration # 49     ecut=    50.00 Ry     beta= 0.40
     Davidson diagonalization with overlap

---- Real-time Memory Report at c_bands before calling an iterative solver
            75 MiB given to the printing process from OS
            33 MiB allocation reported by mallinfo(arena+hblkhd)
        489654 MiB available memory on the node where the printing process lives
------------------
     ethr =  2.63E-06,  avg # of iterations =  8.3

     negative rho (up, down):  6.689E-04 2.006E-03

     total cpu time spent up to now is       39.9 secs

     total energy              =    -583.82422383 Ry
     estimated scf accuracy    <       0.01318498 Ry

     total magnetization       =     0.88 Bohr mag/cell
     absolute magnetization    =     3.60 Bohr mag/cell

     iteration # 50     ecut=    50.00 Ry     beta= 0.40
     Davidson diagonalization with overlap

---- Real-time Memory Report at c_bands before calling an iterative solver
            75 MiB given to the printing process from OS
            33 MiB allocation reported by mallinfo(arena+hblkhd)
        489653 MiB available memory on the node where the printing process lives
------------------
     ethr =  2.63E-06,  avg # of iterations =  9.2

     negative rho (up, down):  6.864E-04 1.983E-03

     total cpu time spent up to now is       41.1 secs

     total energy              =    -583.84781643 Ry
     estimated scf accuracy    <       0.00156552 Ry

     total magnetization       =     2.31 Bohr mag/cell
     absolute magnetization    =     2.67 Bohr mag/cell

     iteration # 51     ecut=    50.00 Ry     beta= 0.40
     Davidson diagonalization with overlap

---- Real-time Memory Report at c_bands before calling an iterative solver
            75 MiB given to the printing process from OS
            33 MiB allocation reported by mallinfo(arena+hblkhd)
        489653 MiB available memory on the node where the printing process lives
------------------
     ethr =  2.63E-06,  avg # of iterations =  1.0

     negative rho (up, down):  6.266E-04 1.841E-03

     total cpu time spent up to now is       41.6 secs

     total energy              =    -583.84314167 Ry
     estimated scf accuracy    <       0.00158536 Ry

     total magnetization       =     2.17 Bohr mag/cell
     absolute magnetization    =     2.59 Bohr mag/cell

     iteration # 52     ecut=    50.00 Ry     beta= 0.40
     Davidson diagonalization with overlap

---- Real-time Memory Report at c_bands before calling an iterative solver
            75 MiB given to the printing process from OS
            33 MiB allocation reported by mallinfo(arena+hblkhd)
        489652 MiB available memory on the node where the printing process lives
------------------
     ethr =  2.63E-06,  avg # of iterations =  5.5

     negative rho (up, down):  5.518E-04 1.778E-03

     total cpu time spent up to now is       42.4 secs

     total energy              =    -583.84019781 Ry
     estimated scf accuracy    <       0.00174342 Ry

     total magnetization       =     2.60 Bohr mag/cell
     absolute magnetization    =     2.81 Bohr mag/cell

     iteration # 53     ecut=    50.00 Ry     beta= 0.40
     Davidson diagonalization with overlap

---- Real-time Memory Report at c_bands before calling an iterative solver
            75 MiB given to the printing process from OS
            33 MiB allocation reported by mallinfo(arena+hblkhd)
        489651 MiB available memory on the node where the printing process lives
------------------
     ethr =  2.63E-06,  avg # of iterations =  7.6

     negative rho (up, down):  4.817E-04 2.227E-03

     total cpu time spent up to now is       43.4 secs

     total energy              =    -583.83805218 Ry
     estimated scf accuracy    <       0.00228117 Ry

     total magnetization       =     3.03 Bohr mag/cell
     absolute magnetization    =     3.17 Bohr mag/cell

     iteration # 54     ecut=    50.00 Ry     beta= 0.40
     Davidson diagonalization with overlap

---- Real-time Memory Report at c_bands before calling an iterative solver
            75 MiB given to the printing process from OS
            33 MiB allocation reported by mallinfo(arena+hblkhd)
        489651 MiB available memory on the node where the printing process lives
------------------
     ethr =  2.63E-06,  avg # of iterations =  7.6

     negative rho (up, down):  4.638E-04 2.328E-03

     total cpu time spent up to now is       44.5 secs

     total energy              =    -583.83904275 Ry
     estimated scf accuracy    <       0.00347792 Ry

     total magnetization       =     3.37 Bohr mag/cell
     absolute magnetization    =     3.50 Bohr mag/cell

     iteration # 55     ecut=    50.00 Ry     beta= 0.40
     Davidson diagonalization with overlap

---- Real-time Memory Report at c_bands before calling an iterative solver
            75 MiB given to the printing process from OS
            33 MiB allocation reported by mallinfo(arena+hblkhd)
        489651 MiB available memory on the node where the printing process lives
------------------
     ethr =  2.63E-06,  avg # of iterations =  2.3

     negative rho (up, down):  4.485E-04 2.415E-03

     total cpu time spent up to now is       45.0 secs

     total energy              =    -583.83825598 Ry
     estimated scf accuracy    <       0.00420550 Ry

     total magnetization       =     3.45 Bohr mag/cell
     absolute magnetization    =     3.57 Bohr mag/cell

     iteration # 56     ecut=    50.00 Ry     beta= 0.40
     Davidson diagonalization with overlap

---- Real-time Memory Report at c_bands before calling an iterative solver
            75 MiB given to the printing process from OS
            33 MiB allocation reported by mallinfo(arena+hblkhd)
        489651 MiB available memory on the node where the printing process lives
------------------
     ethr =  2.63E-06,  avg # of iterations =  2.2

     negative rho (up, down):  4.171E-04 2.676E-03

     total cpu time spent up to now is       45.6 secs

     total energy              =    -583.83607006 Ry
     estimated scf accuracy    <       0.00460720 Ry

     total magnetization       =     3.51 Bohr mag/cell
     absolute magnetization    =     3.63 Bohr mag/cell

     iteration # 57     ecut=    50.00 Ry     beta= 0.40
     Davidson diagonalization with overlap

---- Real-time Memory Report at c_bands before calling an iterative solver
            75 MiB given to the printing process from OS
            33 MiB allocation reported by mallinfo(arena+hblkhd)
        489642 MiB available memory on the node where the printing process lives
------------------
     ethr =  2.63E-06,  avg # of iterations =  5.4

     negative rho (up, down):  4.481E-04 2.406E-03

     total cpu time spent up to now is       46.5 secs

     total energy              =    -583.83807022 Ry
     estimated scf accuracy    <       0.00481460 Ry

     total magnetization       =     3.61 Bohr mag/cell
     absolute magnetization    =     3.73 Bohr mag/cell

     iteration # 58     ecut=    50.00 Ry     beta= 0.40
     Davidson diagonalization with overlap

---- Real-time Memory Report at c_bands before calling an iterative solver
            75 MiB given to the printing process from OS
            33 MiB allocation reported by mallinfo(arena+hblkhd)
        489642 MiB available memory on the node where the printing process lives
------------------
     ethr =  2.63E-06,  avg # of iterations =  2.1

     negative rho (up, down):  8.014E-04 2.151E-03

     total cpu time spent up to now is       47.0 secs

     total energy              =    -583.80100911 Ry
     estimated scf accuracy    <       0.00378243 Ry

     total magnetization       =     3.50 Bohr mag/cell
     absolute magnetization    =     3.63 Bohr mag/cell

     iteration # 59     ecut=    50.00 Ry     beta= 0.40
     Davidson diagonalization with overlap

---- Real-time Memory Report at c_bands before calling an iterative solver
            75 MiB given to the printing process from OS
            33 MiB allocation reported by mallinfo(arena+hblkhd)
        489642 MiB available memory on the node where the printing process lives
------------------
     ethr =  2.63E-06,  avg # of iterations = 12.0

     negative rho (up, down):  5.259E-04 1.945E-03

     total cpu time spent up to now is       48.4 secs

     total energy              =    -583.80028118 Ry
     estimated scf accuracy    <       0.00503959 Ry

     total magnetization       =     1.40 Bohr mag/cell
     absolute magnetization    =     2.93 Bohr mag/cell

     iteration # 60     ecut=    50.00 Ry     beta= 0.40
     Davidson diagonalization with overlap

---- Real-time Memory Report at c_bands before calling an iterative solver
            75 MiB given to the printing process from OS
            33 MiB allocation reported by mallinfo(arena+hblkhd)
        489642 MiB available memory on the node where the printing process lives
------------------
     ethr =  2.63E-06,  avg # of iterations = 10.9

     negative rho (up, down):  6.429E-04 1.961E-03

     total cpu time spent up to now is       49.8 secs

     total energy              =    -583.83989184 Ry
     estimated scf accuracy    <       0.00220468 Ry

     total magnetization       =     3.16 Bohr mag/cell
     absolute magnetization    =     3.30 Bohr mag/cell

     iteration # 61     ecut=    50.00 Ry     beta= 0.40
     Davidson diagonalization with overlap

---- Real-time Memory Report at c_bands before calling an iterative solver
            75 MiB given to the printing process from OS
            33 MiB allocation reported by mallinfo(arena+hblkhd)
        489642 MiB available memory on the node where the printing process lives
------------------
     ethr =  2.63E-06,  avg # of iterations =  8.7

     negative rho (up, down):  3.044E-04 4.297E-03

     total cpu time spent up to now is       51.0 secs

     total energy              =    -583.74058838 Ry
     estimated scf accuracy    <       0.00117822 Ry

     total magnetization       =     2.48 Bohr mag/cell
     absolute magnetization    =     2.76 Bohr mag/cell

     iteration # 62     ecut=    50.00 Ry     beta= 0.40
     Davidson diagonalization with overlap

---- Real-time Memory Report at c_bands before calling an iterative solver
            75 MiB given to the printing process from OS
            33 MiB allocation reported by mallinfo(arena+hblkhd)
        489641 MiB available memory on the node where the printing process lives
------------------
     ethr =  2.27E-06,  avg # of iterations = 16.2

     negative rho (up, down):  3.241E-04 3.879E-03

     total cpu time spent up to now is       52.5 secs

     total energy              =    -583.82253530 Ry
     estimated scf accuracy    <       0.01161977 Ry

     total magnetization       =     4.10 Bohr mag/cell
     absolute magnetization    =     4.23 Bohr mag/cell

     iteration # 63     ecut=    50.00 Ry     beta= 0.40
     Davidson diagonalization with overlap

---- Real-time Memory Report at c_bands before calling an iterative solver
            75 MiB given to the printing process from OS
            33 MiB allocation reported by mallinfo(arena+hblkhd)
        489639 MiB available memory on the node where the printing process lives
------------------
     ethr =  2.27E-06,  avg # of iterations =  4.0

     negative rho (up, down):  3.641E-04 3.097E-03

     total cpu time spent up to now is       53.2 secs

     total energy              =    -583.83034960 Ry
     estimated scf accuracy    <       0.00921292 Ry

     total magnetization       =     3.99 Bohr mag/cell
     absolute magnetization    =     4.12 Bohr mag/cell

     iteration # 64     ecut=    50.00 Ry     beta= 0.40
     Davidson diagonalization with overlap

---- Real-time Memory Report at c_bands before calling an iterative solver
            75 MiB given to the printing process from OS
            33 MiB allocation reported by mallinfo(arena+hblkhd)
        489639 MiB available memory on the node where the printing process lives
------------------
     ethr =  2.27E-06,  avg # of iterations =  7.8

     negative rho (up, down):  4.734E-04 2.211E-03

     total cpu time spent up to now is       54.3 secs

     total energy              =    -583.83571332 Ry
     estimated scf accuracy    <       0.00543223 Ry

     total magnetization       =     3.75 Bohr mag/cell
     absolute magnetization    =     3.88 Bohr mag/cell

     iteration # 65     ecut=    50.00 Ry     beta= 0.40
     Davidson diagonalization with overlap

---- Real-time Memory Report at c_bands before calling an iterative solver
[...]

     iteration #480     ecut=    50.00 Ry     beta= 0.40
     Davidson diagonalization with overlap

---- Real-time Memory Report at c_bands before calling an iterative solver
            77 MiB given to the printing process from OS
            33 MiB allocation reported by mallinfo(arena+hblkhd)
        489590 MiB available memory on the node where the printing process lives
------------------
     ethr =  9.07E-07,  avg # of iterations =  4.9

     negative rho (up, down):  6.363E-04 2.053E-03

     total cpu time spent up to now is      487.1 secs

     total energy              =    -583.84452755 Ry
     estimated scf accuracy    <       0.00077065 Ry

     total magnetization       =     2.84 Bohr mag/cell
     absolute magnetization    =     2.99 Bohr mag/cell

     iteration #481     ecut=    50.00 Ry     beta= 0.40
     Davidson diagonalization with overlap

---- Real-time Memory Report at c_bands before calling an iterative solver
            77 MiB given to the printing process from OS
            33 MiB allocation reported by mallinfo(arena+hblkhd)
        489588 MiB available memory on the node where the printing process lives
------------------
     ethr =  9.07E-07,  avg # of iterations =  7.9

     negative rho (up, down):  9.807E-04 2.608E-03

     total cpu time spent up to now is      488.2 secs

     total energy              =    -583.82040146 Ry
     estimated scf accuracy    <       0.00191878 Ry

     total magnetization       =     2.54 Bohr mag/cell
     absolute magnetization    =     2.81 Bohr mag/cell

     iteration #482     ecut=    50.00 Ry     beta= 0.40
     Davidson diagonalization with overlap

---- Real-time Memory Report at c_bands before calling an iterative solver
            77 MiB given to the printing process from OS
            33 MiB allocation reported by mallinfo(arena+hblkhd)
        489588 MiB available memory on the node where the printing process lives
------------------
     ethr =  9.07E-07,  avg # of iterations = 12.7

     negative rho (up, down):  5.692E-04 1.897E-03

     total cpu time spent up to now is      489.7 secs

     total energy              =    -583.76183189 Ry
     estimated scf accuracy    <       0.03134597 Ry

     total magnetization       =     0.54 Bohr mag/cell
     absolute magnetization    =     4.36 Bohr mag/cell

     iteration #483     ecut=    50.00 Ry     beta= 0.40
     Davidson diagonalization with overlap

---- Real-time Memory Report at c_bands before calling an iterative solver
            77 MiB given to the printing process from OS
            33 MiB allocation reported by mallinfo(arena+hblkhd)
        489588 MiB available memory on the node where the printing process lives
------------------
     ethr =  9.07E-07,  avg # of iterations = 13.3

     negative rho (up, down):  5.240E-04 1.978E-03

     total cpu time spent up to now is      491.2 secs

     total energy              =    -583.84130704 Ry
     estimated scf accuracy    <       0.00342750 Ry

     total magnetization       =     2.99 Bohr mag/cell
     absolute magnetization    =     3.14 Bohr mag/cell

     iteration #484     ecut=    50.00 Ry     beta= 0.40
     Davidson diagonalization with overlap

---- Real-time Memory Report at c_bands before calling an iterative solver
            77 MiB given to the printing process from OS
            33 MiB allocation reported by mallinfo(arena+hblkhd)
        489588 MiB available memory on the node where the printing process lives
------------------
     ethr =  9.07E-07,  avg # of iterations =  6.3

     negative rho (up, down):  4.948E-04 2.180E-03

     total cpu time spent up to now is      492.1 secs

     total energy              =    -583.84024864 Ry
     estimated scf accuracy    <       0.00284224 Ry

     total magnetization       =     3.17 Bohr mag/cell
     absolute magnetization    =     3.31 Bohr mag/cell

     iteration #485     ecut=    50.00 Ry     beta= 0.40
     Davidson diagonalization with overlap

---- Real-time Memory Report at c_bands before calling an iterative solver
            77 MiB given to the printing process from OS
            33 MiB allocation reported by mallinfo(arena+hblkhd)
        489589 MiB available memory on the node where the printing process lives
------------------
     ethr =  9.07E-07,  avg # of iterations =  6.1

     negative rho (up, down):  4.532E-04 2.426E-03

     total cpu time spent up to now is      492.9 secs

     total energy              =    -583.83795097 Ry
     estimated scf accuracy    <       0.00373175 Ry

     total magnetization       =     3.33 Bohr mag/cell
     absolute magnetization    =     3.46 Bohr mag/cell

     iteration #486     ecut=    50.00 Ry     beta= 0.40
     Davidson diagonalization with overlap

---- Real-time Memory Report at c_bands before calling an iterative solver
            77 MiB given to the printing process from OS
            33 MiB allocation reported by mallinfo(arena+hblkhd)
        489588 MiB available memory on the node where the printing process lives
------------------
     ethr =  9.07E-07,  avg # of iterations =  6.5

     negative rho (up, down):  4.977E-04 2.054E-03

     total cpu time spent up to now is      493.8 secs

     total energy              =    -583.84004149 Ry
     estimated scf accuracy    <       0.00506345 Ry

     total magnetization       =     3.50 Bohr mag/cell
     absolute magnetization    =     3.63 Bohr mag/cell

     iteration #487     ecut=    50.00 Ry     beta= 0.40
     Davidson diagonalization with overlap

---- Real-time Memory Report at c_bands before calling an iterative solver
            77 MiB given to the printing process from OS
            33 MiB allocation reported by mallinfo(arena+hblkhd)
        489588 MiB available memory on the node where the printing process lives
------------------
     ethr =  9.07E-07,  avg # of iterations =  5.7

     negative rho (up, down):  7.151E-04 2.199E-03

     total cpu time spent up to now is      494.6 secs

     total energy              =    -583.82771847 Ry
     estimated scf accuracy    <       0.00193221 Ry

     total magnetization       =     3.25 Bohr mag/cell
     absolute magnetization    =     3.38 Bohr mag/cell

     iteration #488     ecut=    50.00 Ry     beta= 0.40
     Davidson diagonalization with overlap

---- Real-time Memory Report at c_bands before calling an iterative solver
            77 MiB given to the printing process from OS
            33 MiB allocation reported by mallinfo(arena+hblkhd)
        489588 MiB available memory on the node where the printing process lives
------------------
     ethr =  9.07E-07,  avg # of iterations = 12.0

     negative rho (up, down):  5.322E-04 1.847E-03

     total cpu time spent up to now is      496.0 secs

     total energy              =    -583.82445796 Ry
     estimated scf accuracy    <       0.00183920 Ry

     total magnetization       =     1.94 Bohr mag/cell
     absolute magnetization    =     2.53 Bohr mag/cell

     iteration #489     ecut=    50.00 Ry     beta= 0.40
     Davidson diagonalization with overlap

---- Real-time Memory Report at c_bands before calling an iterative solver
            77 MiB given to the printing process from OS
            33 MiB allocation reported by mallinfo(arena+hblkhd)
        489588 MiB available memory on the node where the printing process lives
------------------
     ethr =  9.07E-07,  avg # of iterations = 10.8

     negative rho (up, down):  3.314E-04 3.539E-03

     total cpu time spent up to now is      497.4 secs

     total energy              =    -583.80681608 Ry
     estimated scf accuracy    <       0.00125873 Ry

     total magnetization       =     3.07 Bohr mag/cell
     absolute magnetization    =     3.21 Bohr mag/cell

     iteration #490     ecut=    50.00 Ry     beta= 0.40
     Davidson diagonalization with overlap

---- Real-time Memory Report at c_bands before calling an iterative solver
            77 MiB given to the printing process from OS
            33 MiB allocation reported by mallinfo(arena+hblkhd)
        489588 MiB available memory on the node where the printing process lives
------------------
     ethr =  9.07E-07,  avg # of iterations = 13.5

     negative rho (up, down):  7.784E-04 2.320E-03

     total cpu time spent up to now is      498.8 secs

     total energy              =    -583.76926371 Ry
     estimated scf accuracy    <       0.00627374 Ry

     total magnetization       =     3.88 Bohr mag/cell
     absolute magnetization    =     4.00 Bohr mag/cell

     iteration #491     ecut=    50.00 Ry     beta= 0.40
     Davidson diagonalization with overlap

---- Real-time Memory Report at c_bands before calling an iterative solver
            77 MiB given to the printing process from OS
            33 MiB allocation reported by mallinfo(arena+hblkhd)
        489588 MiB available memory on the node where the printing process lives
------------------
     ethr =  9.07E-07,  avg # of iterations = 15.4

     negative rho (up, down):  6.672E-04 2.127E-03

     total cpu time spent up to now is      500.5 secs

     total energy              =    -583.84181344 Ry
     estimated scf accuracy    <       0.00360631 Ry

     total magnetization       =     1.46 Bohr mag/cell
     absolute magnetization    =     2.93 Bohr mag/cell

     iteration #492     ecut=    50.00 Ry     beta= 0.40
     Davidson diagonalization with overlap

---- Real-time Memory Report at c_bands before calling an iterative solver
            77 MiB given to the printing process from OS
            33 MiB allocation reported by mallinfo(arena+hblkhd)
        489587 MiB available memory on the node where the printing process lives
------------------
     ethr =  9.07E-07,  avg # of iterations =  9.0

     negative rho (up, down):  6.308E-04 2.057E-03

     total cpu time spent up to now is      501.7 secs

     total energy              =    -583.84577906 Ry
     estimated scf accuracy    <       0.00108161 Ry

     total magnetization       =     2.20 Bohr mag/cell
     absolute magnetization    =     2.58 Bohr mag/cell

     iteration #493     ecut=    50.00 Ry     beta= 0.40
     Davidson diagonalization with overlap

---- Real-time Memory Report at c_bands before calling an iterative solver
            77 MiB given to the printing process from OS
            33 MiB allocation reported by mallinfo(arena+hblkhd)
        489587 MiB available memory on the node where the printing process lives
------------------
     ethr =  9.07E-07,  avg # of iterations =  5.1

     negative rho (up, down):  5.608E-04 1.922E-03

     total cpu time spent up to now is      502.4 secs

     total energy              =    -583.84151774 Ry
     estimated scf accuracy    <       0.00076465 Ry

     total magnetization       =     2.43 Bohr mag/cell
     absolute magnetization    =     2.71 Bohr mag/cell

     iteration #494     ecut=    50.00 Ry     beta= 0.40
     Davidson diagonalization with overlap

---- Real-time Memory Report at c_bands before calling an iterative solver
            77 MiB given to the printing process from OS
            33 MiB allocation reported by mallinfo(arena+hblkhd)
        489587 MiB available memory on the node where the printing process lives
------------------
     ethr =  9.07E-07,  avg # of iterations =  8.4

     negative rho (up, down):  5.794E-04 1.961E-03

     total cpu time spent up to now is      503.6 secs

     total energy              =    -583.84450660 Ry
     estimated scf accuracy    <       0.00054894 Ry

     total magnetization       =     2.84 Bohr mag/cell
     absolute magnetization    =     2.99 Bohr mag/cell

     iteration #495     ecut=    50.00 Ry     beta= 0.40
     Davidson diagonalization with overlap

---- Real-time Memory Report at c_bands before calling an iterative solver
            77 MiB given to the printing process from OS
            33 MiB allocation reported by mallinfo(arena+hblkhd)
        489587 MiB available memory on the node where the printing process lives
------------------
     ethr =  9.07E-07,  avg # of iterations =  1.8

     negative rho (up, down):  6.120E-04 2.036E-03

     total cpu time spent up to now is      504.1 secs

     total energy              =    -583.84523215 Ry
     estimated scf accuracy    <       0.00051522 Ry

     total magnetization       =     2.75 Bohr mag/cell
     absolute magnetization    =     2.91 Bohr mag/cell

     iteration #496     ecut=    50.00 Ry     beta= 0.40
     Davidson diagonalization with overlap

---- Real-time Memory Report at c_bands before calling an iterative solver
            77 MiB given to the printing process from OS
            33 MiB allocation reported by mallinfo(arena+hblkhd)
        489587 MiB available memory on the node where the printing process lives
------------------
     ethr =  9.07E-07,  avg # of iterations =  4.9

     negative rho (up, down):  6.884E-04 2.170E-03

     total cpu time spent up to now is      504.8 secs

     total energy              =    -583.84634713 Ry
     estimated scf accuracy    <       0.00063708 Ry

     total magnetization       =     2.53 Bohr mag/cell
     absolute magnetization    =     2.76 Bohr mag/cell

     iteration #497     ecut=    50.00 Ry     beta= 0.40
     Davidson diagonalization with overlap

---- Real-time Memory Report at c_bands before calling an iterative solver
            77 MiB given to the printing process from OS
            33 MiB allocation reported by mallinfo(arena+hblkhd)
        489587 MiB available memory on the node where the printing process lives
------------------
     ethr =  9.07E-07,  avg # of iterations =  7.9

     negative rho (up, down):  7.132E-04 2.199E-03

     total cpu time spent up to now is      506.0 secs

     total energy              =    -583.84948115 Ry
     estimated scf accuracy    <       0.00132142 Ry

     total magnetization       =     2.08 Bohr mag/cell
     absolute magnetization    =     2.54 Bohr mag/cell

     iteration #498     ecut=    50.00 Ry     beta= 0.40
     Davidson diagonalization with overlap

---- Real-time Memory Report at c_bands before calling an iterative solver
            77 MiB given to the printing process from OS
            33 MiB allocation reported by mallinfo(arena+hblkhd)
        489589 MiB available memory on the node where the printing process lives
------------------
     ethr =  9.07E-07,  avg # of iterations =  2.5

     negative rho (up, down):  5.842E-04 1.988E-03

     total cpu time spent up to now is      506.6 secs

     total energy              =    -583.83860749 Ry
     estimated scf accuracy    <       0.00173309 Ry

     total magnetization       =     1.98 Bohr mag/cell
     absolute magnetization    =     2.54 Bohr mag/cell

     iteration #499     ecut=    50.00 Ry     beta= 0.40
     Davidson diagonalization with overlap

---- Real-time Memory Report at c_bands before calling an iterative solver
            77 MiB given to the printing process from OS
            33 MiB allocation reported by mallinfo(arena+hblkhd)
        489587 MiB available memory on the node where the printing process lives
------------------
     ethr =  9.07E-07,  avg # of iterations =  8.2

     negative rho (up, down):  3.676E-04 2.816E-03

     total cpu time spent up to now is      507.7 secs

     total energy              =    -583.81245312 Ry
     estimated scf accuracy    <       0.00054839 Ry

     total magnetization       =     2.67 Bohr mag/cell
     absolute magnetization    =     2.85 Bohr mag/cell

     iteration #500     ecut=    50.00 Ry     beta= 0.40
     Davidson diagonalization with overlap

---- Real-time Memory Report at c_bands before calling an iterative solver
            77 MiB given to the printing process from OS
            33 MiB allocation reported by mallinfo(arena+hblkhd)
        489587 MiB available memory on the node where the printing process lives
------------------
     ethr =  9.07E-07,  avg # of iterations = 12.6

     negative rho (up, down):  1.022E-03 2.711E-03

     total cpu time spent up to now is      509.1 secs

     total energy              =    -583.71564272 Ry
     estimated scf accuracy    <       0.00257199 Ry

     total magnetization       =     3.64 Bohr mag/cell
     absolute magnetization    =     3.77 Bohr mag/cell

     End of self-consistent calculation

     convergence NOT achieved after 500 iterations: stopping

     Writing config to output data dir ./out/aiida.save/ :
     XML data file, charge density

     init_run     :      1.00s CPU      1.04s WALL (       1 calls)
     electrons    :    489.25s CPU    507.42s WALL (       1 calls)

     Called by init_run:
     wfcinit      :      0.20s CPU      0.22s WALL (       1 calls)
     wfcinit:atom :      0.00s CPU      0.00s WALL (      18 calls)
     wfcinit:wfcr :      0.18s CPU      0.20s WALL (      18 calls)
     potinit      :      0.35s CPU      0.35s WALL (       1 calls)
     hinit0       :      0.39s CPU      0.40s WALL (       1 calls)

     Called by electrons:
     c_bands      :    427.98s CPU    443.06s WALL (     500 calls)
     sum_band     :     39.57s CPU     41.77s WALL (     500 calls)
     v_of_rho     :     11.53s CPU     11.91s WALL (     501 calls)
     v_h          :      0.23s CPU      0.26s WALL (     501 calls)
     v_xc         :     11.30s CPU     11.64s WALL (     501 calls)
     newd         :      6.46s CPU      6.52s WALL (     501 calls)
     mix_rho      :      1.47s CPU      1.56s WALL (     500 calls)

     Called by c_bands:
     init_us_2    :      3.02s CPU      3.16s WALL (   18018 calls)
     init_us_2:cp :      2.97s CPU      3.11s WALL (   18018 calls)
     cegterg      :    272.97s CPU    283.99s WALL (    9000 calls)

     Called by sum_band:
     sum_band:wei :      0.66s CPU      0.68s WALL (     500 calls)
     sum_band:loo :     29.13s CPU     30.74s WALL (     500 calls)
     sum_band:buf :      0.28s CPU      0.30s WALL (    9000 calls)
     sum_band:ini :      1.45s CPU      1.51s WALL (    9000 calls)
     sum_band:cal :      2.88s CPU      2.99s WALL (    9000 calls)
     sum_band:bec :      0.16s CPU      0.17s WALL (    9000 calls)
     addusdens    :      8.27s CPU      8.42s WALL (     500 calls)
                                        0.00s GPU  (     500 calls)
     addusd:skk   :      0.01s CPU      0.01s WALL (    2000 calls)
                                        0.00s GPU  (    2000 calls)

     Called by *egterg:
     cdiaghg      :     59.49s CPU     60.28s WALL (   55949 calls)
     cegterg:over :     10.52s CPU     11.03s WALL (   46949 calls)
     cegterg:upda :      6.22s CPU      6.37s WALL (   46949 calls)
     cegterg:last :     11.93s CPU     12.05s WALL (   24357 calls)
     h_psi        :    171.21s CPU    179.85s WALL (   55967 calls)
     s_psi        :      8.39s CPU      8.69s WALL (   55967 calls)
     g_psi        :      0.64s CPU      0.68s WALL (   46949 calls)

     Called by h_psi:
     h_psi:calbec :     10.76s CPU     11.26s WALL (   55967 calls)
     vloc_psi     :    150.99s CPU    158.65s WALL (   55967 calls)
     add_vuspsi   :      8.72s CPU      9.02s WALL (   55967 calls)

     General routines
     calbec       :     13.51s CPU     14.06s WALL (   64967 calls)
     fft          :      4.07s CPU      4.54s WALL (   12523 calls)
     ffts         :      0.56s CPU      0.60s WALL (    2002 calls)
     fftw         :    146.00s CPU    152.74s WALL ( 2023232 calls)
     interpolate  :      0.84s CPU      0.86s WALL (    1002 calls)
     davcio       :      0.00s CPU      0.01s WALL (      36 calls)

     Parallel routines

     PWSCF        :   8m10.65s CPU   8m29.16s WALL


   This run was terminated on:  19:11:32  28Nov2023            

=------------------------------------------------------------------------------=
   JOB DONE.
=------------------------------------------------------------------------------=
