
     Program PWSCF v.7.2 starts on 23Oct2023 at 17:43: 8 

     This program is part of the open-source Quantum ESPRESSO suite
     for quantum simulation of materials; please cite
         "P. Giannozzi et al., J. Phys.:Condens. Matter 21 395502 (2009);
         "P. Giannozzi et al., J. Phys.:Condens. Matter 29 465901 (2017);
         "P. Giannozzi et al., J. Chem. Phys. 152 154105 (2020);
          URL http://www.quantum-espresso.org", 
     in publications or presentations arising from this work. More details at
     http://www.quantum-espresso.org/quote

     Parallel version (MPI & OpenMP), running on      12 processor cores
     Number of MPI processes:                 1
     Threads/MPI process:                    12

     MPI processes distributed on     1 nodes
     60520 MiB available memory on the printing compute node when the environment starts
 
     Reading input from aiida.in

     Current dimensions of program PWSCF are:
     Max number of different atomic species (ntypx) = 10
     Max number of k-points (npk) =  40000
     Max angular momentum in pseudopotentials (lmaxx) =  4
     file O.pbesol-n-kjpaw_psl.0.1.UPF: wavefunction(s)  2P renormalized
     Message from routine setup:
     using ibrav=0 with symmetry is DISCOURAGED, use correct ibrav instead
 
     Subspace diagonalization in iterative solution of the eigenvalue problem:
     a serial algorithm will be used

 
     G-vector sticks info
     --------------------
     sticks:   dense  smooth     PW     G-vecs:    dense   smooth      PW
     Sum        7939    3979   1125               405079   143291   21515
 
     Using Slab Decomposition
 


     bravais-lattice index     =            0
     lattice parameter (alat)  =      17.2276  a.u.
     unit-cell volume          =    2281.5987 (a.u.)^3
     number of atoms/cell      =           15
     number of atomic types    =            4
     number of electrons       =       100.00
     number of Kohn-Sham states=           60
     kinetic-energy cutoff     =      60.0000  Ry
     charge density cutoff     =     480.0000  Ry
     scf convergence threshold =      3.0E-09
     mixing beta               =       0.4000
     number of iterations used =            8  plain     mixing
     Exchange-correlation= SLA  PW   PSX  PSC
                           (   1   4  10   8   0   0   0)

     GPU acceleration is ACTIVE.


     GPU used by master process:

        Device Number: 0
        Device name: Tesla P100-PCIE-16GB
        Compute capability : 60
        Ratio of single to double precision performance  : 2
        Memory Clock Rate (KHz): 715000
        Memory Bus Width (bits): 4096
        Peak Memory Bandwidth (GB/s): 732.16

     celldm(1)=  17.227629  celldm(2)=   0.000000  celldm(3)=   0.000000
     celldm(4)=   0.000000  celldm(5)=   0.000000  celldm(6)=   0.000000

     crystal axes: (cart. coord. in units of alat)
               a(1) = (   0.378436   0.218490   0.899471 )  
               a(2) = (  -0.378436   0.218490   0.899471 )  
               a(3) = (   0.000000  -0.436980   0.899471 )  

     reciprocal axes: (cart. coord. in units 2 pi/alat)
               b(1) = (  1.321227  0.762811  0.370588 )  
               b(2) = ( -1.321227  0.762811  0.370588 )  
               b(3) = ( -0.000000 -1.525622  0.370588 )  


     PseudoPot. # 1 for Cl read from file:
     ./pseudo/cl_pbesol_v1.4.uspp.F.UPF
     MD5 check sum: ed6bbcf06f19043c0df9f6394706ff8f
     Pseudo is Ultrasoft + core correction, Zval =  7.0
     Generated by new atomic code, or converted to UPF format
     Using radial grid of  909 points,  6 beta functions with: 
                l(1) =   0
                l(2) =   0
                l(3) =   1
                l(4) =   1
                l(5) =   2
                l(6) =   2
     Q(r) pseudized with  8 coefficients,  rinner =    1.300   1.300   1.300
                                                       1.300   1.300

     PseudoPot. # 2 for Ir read from file:
     ./pseudo/ir_pbesol_v1.2.uspp.F.UPF
     MD5 check sum: 965d8bb5733ec2587acb56a50491f36d
     Pseudo is Ultrasoft + core correction, Zval = 15.0
     Generated by new atomic code, or converted to UPF format
     Using radial grid of  983 points,  7 beta functions with: 
                l(1) =   0
                l(2) =   0
                l(3) =   1
                l(4) =   1
                l(5) =   1
                l(6) =   2
                l(7) =   2
     Q(r) pseudized with  8 coefficients,  rinner =    1.400   1.400   1.400
                                                       1.400   1.400

     PseudoPot. # 3 for N  read from file:
     ./pseudo/N.pbesol-theos.UPF
     MD5 check sum: 1b64827339d390a5a22afef3ff345c9d
     Pseudo is Ultrasoft + core correction, Zval =  5.0
     Generated using "atomic" code by A. Dal Corso  v.5.1
     Using radial grid of 1085 points,  4 beta functions with: 
                l(1) =   0
                l(2) =   0
                l(3) =   1
                l(4) =   1
     Q(r) pseudized with 0 coefficients 


     PseudoPot. # 4 for O  read from file:
     ./pseudo/O.pbesol-n-kjpaw_psl.0.1.UPF
     MD5 check sum: 81d73d1479e654e5638b0319f0d6c2c7
     Pseudo is Projector augmented-wave + core cor, Zval =  6.0
     Generated using "atomic" code by A. Dal Corso  v.6.0 svn rev. 13079
     Shape of augmentation charge: BESSEL
     Using radial grid of 1095 points,  4 beta functions with: 
                l(1) =   0
                l(2) =   0
                l(3) =   1
                l(4) =   1
     Q(r) pseudized with 0 coefficients 


     atomic species   valence    mass     pseudopotential
        Cl             7.00    35.45300     Cl( 1.00)
        Ir            15.00   192.21700     Ir( 1.00)
        N              5.00    14.00670     N ( 1.00)
        O              6.00    15.99940     O ( 1.00)

     Starting magnetic structure 
     atomic species   magnetization
        Cl           0.100
        Ir           0.333
        N            0.100
        O            0.100

      6 Sym. Ops. (no inversion) found


                                    s                        frac. trans.

      isym =  1     identity                                     

 cryst.   s( 1) = (     1          0          0      )
                  (     0          1          0      )
                  (     0          0          1      )

 cart.    s( 1) = (  1.0000000 -0.0000000 -0.0000000 )
                  (  0.0000000  1.0000000 -0.0000000 )
                  (  0.0000000  0.0000000  1.0000000 )


      isym =  2     120 deg rotation - cryst. axis [0,0,1]       

 cryst.   s( 2) = (     0          1          0      )
                  (     0          0          1      )
                  (     1          0          0      )

 cart.    s( 2) = ( -0.5000000 -0.8660254 -0.0000000 )
                  (  0.8660254 -0.5000000 -0.0000000 )
                  (  0.0000000 -0.0000000  1.0000000 )


      isym =  3     120 deg rotation - cryst. axis [0,0,-1]      

 cryst.   s( 3) = (     0          0          1      )
                  (     1          0          0      )
                  (     0          1          0      )

 cart.    s( 3) = ( -0.5000000  0.8660254 -0.0000000 )
                  ( -0.8660254 -0.5000000 -0.0000000 )
                  ( -0.0000000  0.0000000  1.0000000 )


      isym =  4     inv. 180 deg rotation - cart. axis [1,0,0]   

 cryst.   s( 4) = (     0          1          0      )
                  (     1          0          0      )
                  (     0          0          1      )

 cart.    s( 4) = ( -1.0000000 -0.0000000 -0.0000000 )
                  (  0.0000000  1.0000000 -0.0000000 )
                  ( -0.0000000  0.0000000  1.0000000 )


      isym =  5     inv. 180 deg rotation - cryst. axis [0,1,0]  

 cryst.   s( 5) = (     1          0          0      )
                  (     0          0          1      )
                  (     0          1          0      )

 cart.    s( 5) = (  0.5000000  0.8660254 -0.0000000 )
                  (  0.8660254 -0.5000000 -0.0000000 )
                  (  0.0000000  0.0000000  1.0000000 )


      isym =  6     inv. 180 deg rotation - cryst. axis [1,1,0]  

 cryst.   s( 6) = (     0          0          1      )
                  (     0          1          0      )
                  (     1          0          0      )

 cart.    s( 6) = (  0.5000000 -0.8660254 -0.0000000 )
                  ( -0.8660254 -0.5000000 -0.0000000 )
                  ( -0.0000000 -0.0000000  1.0000000 )


   Cartesian axes

     site n.     atom                  positions (alat units)
         1           Ir  tau(   1) = (  -0.0000000   0.0000000  -0.0000000  )
         2           N   tau(   2) = (  -0.0000000   0.4369803   0.7495293  )
         3           N   tau(   3) = (  -0.0000000   0.4369803   0.1499418  )
         4           N   tau(   4) = (   0.3784360   0.2184901   0.4496456  )
         5           N   tau(   5) = (  -0.0000000  -0.0000000   0.4498255  )
         6           N   tau(   6) = (  -0.0000000   0.4369803   0.4497355  )
         7           Cl  tau(   7) = (   0.3784360   0.4370240   0.7375663  )
         8           Cl  tau(   8) = (   0.1891802   0.1092232   0.7375663  )
         9           Cl  tau(   9) = (   0.5676919   0.1092232   0.7375663  )
        10           Cl  tau(  10) = (   0.3784360   0.4369366   0.1619048  )
        11           Cl  tau(  11) = (   0.1892558   0.1092669   0.1619048  )
        12           Cl  tau(  12) = (   0.5676162   0.1092669   0.1619048  )
        13           O   tau(  13) = (  -0.0000000   0.2796674   0.4497355  )
        14           O   tau(  14) = (   0.1362370   0.5156367   0.4497355  )
        15           O   tau(  15) = (  -0.1362370   0.5156367   0.4497355  )

   Crystallographic axes

     site n.     atom                  positions (cryst. coord.)
         1           Ir  tau(   1) = (  0.0000000  0.0000000  0.0000000  )
         2           N   tau(   2) = (  0.6111000  0.6111000 -0.3889000  )
         3           N   tau(   3) = (  0.3889000  0.3889000 -0.6111000  )
         4           N   tau(   4) = (  0.8333000 -0.1667000 -0.1667000  )
         5           N   tau(   5) = (  0.1667000  0.1667000  0.1667000  )
         6           N   tau(   6) = (  0.5000000  0.5000000 -0.5000000  )
         7           Cl  tau(   7) = (  1.1067000  0.1067000 -0.3934000  )
         8           Cl  tau(   8) = (  0.6066000  0.1067000  0.1067000  )
         9           Cl  tau(   9) = (  1.1067000 -0.3934000  0.1067000  )
        10           Cl  tau(  10) = (  0.8933000 -0.1067000 -0.6066000  )
        11           Cl  tau(  11) = (  0.3934000 -0.1067000 -0.1067000  )
        12           Cl  tau(  12) = (  0.8933000 -0.6066000 -0.1067000  )
        13           O   tau(  13) = (  0.3800000  0.3800000 -0.2600000  )
        14           O   tau(  14) = (  0.7400000  0.3800000 -0.6200000  )
        15           O   tau(  15) = (  0.3800000  0.7400000 -0.6200000  )

     number of k points=    65  Marzari-Vanderbilt smearing, width (Ry)=  0.0100
                       cart. coord. in units 2pi/alat
        k(    1) = (   0.0000000   0.0000000   0.0000000), wk =   0.0019531
        k(    2) = (  -0.0000000  -0.1907027   0.0463235), wk =   0.0117188
        k(    3) = (  -0.0000000  -0.3814055   0.0926470), wk =   0.0117188
        k(    4) = (  -0.0000000  -0.5721082   0.1389706), wk =   0.0117188
        k(    5) = (   0.0000000   0.7628110  -0.1852941), wk =   0.0058594
        k(    6) = (  -0.1651534  -0.0953514   0.0926470), wk =   0.0117188
        k(    7) = (  -0.1651534  -0.2860541   0.1389706), wk =   0.0234375
        k(    8) = (  -0.1651534  -0.4767568   0.1852941), wk =   0.0234375
        k(    9) = (  -0.1651534   0.8581623  -0.1389706), wk =   0.0234375
        k(   10) = (  -0.1651534   0.6674596  -0.0926470), wk =   0.0234375
        k(   11) = (  -0.1651534   0.4767568  -0.0463235), wk =   0.0234375
        k(   12) = (  -0.1651534   0.2860541   0.0000000), wk =   0.0117188
        k(   13) = (  -0.3303068  -0.1907027   0.1852941), wk =   0.0117188
        k(   14) = (  -0.3303068  -0.3814055   0.2316176), wk =   0.0234375
        k(   15) = (  -0.3303068   0.9535137  -0.0926470), wk =   0.0234375
        k(   16) = (  -0.3303068   0.7628110  -0.0463235), wk =   0.0234375
        k(   17) = (  -0.3303068   0.5721082   0.0000000), wk =   0.0117188
        k(   18) = (  -0.4954603  -0.2860541   0.2779411), wk =   0.0117188
        k(   19) = (  -0.4954603   1.0488651  -0.0463235), wk =   0.0234375
        k(   20) = (  -0.4954603   0.8581623  -0.0000000), wk =   0.0117188
        k(   21) = (   0.6606137   0.3814055  -0.3705882), wk =   0.0058594
        k(   22) = (  -0.0000000   0.0000000   0.1389706), wk =   0.0039063
        k(   23) = (  -0.0000000  -0.1907027   0.1852941), wk =   0.0117188
        k(   24) = (  -0.0000000  -0.3814055   0.2316176), wk =   0.0117188
        k(   25) = (   0.0000000   0.9535137  -0.0926470), wk =   0.0117188
        k(   26) = (   0.0000000   0.7628110  -0.0463235), wk =   0.0117188
        k(   27) = (   0.0000000   0.5721082   0.0000000), wk =   0.0117188
        k(   28) = (   0.0000000   0.3814055   0.0463235), wk =   0.0117188
        k(   29) = (  -0.1651534  -0.0953514   0.2316176), wk =   0.0117188
        k(   30) = (  -0.1651534  -0.2860541   0.2779411), wk =   0.0234375
        k(   31) = (  -0.1651534   1.0488651  -0.0463235), wk =   0.0234375
        k(   32) = (  -0.1651534   0.8581623  -0.0000000), wk =   0.0234375
        k(   33) = (  -0.1651534   0.6674596   0.0463235), wk =   0.0234375
        k(   34) = (  -0.1651534   0.4767568   0.0926470), wk =   0.0234375
        k(   35) = (  -0.3303068  -0.1907027   0.3242646), wk =   0.0117188
        k(   36) = (  -0.3303068   1.1442164   0.0000000), wk =   0.0234375
        k(   37) = (  -0.3303068   0.9535137   0.0463235), wk =   0.0234375
        k(   38) = (  -0.3303068   0.7628110   0.0926470), wk =   0.0234375
        k(   39) = (  -0.3303068   0.5721082   0.1389706), wk =   0.0234375
        k(   40) = (   0.8257671   0.4767568  -0.3242646), wk =   0.0117188
        k(   41) = (   0.8257671   0.2860541  -0.2779411), wk =   0.0234375
        k(   42) = (   0.8257671   0.0953514  -0.2316176), wk =   0.0234375
        k(   43) = (   0.8257671  -0.0953514  -0.1852941), wk =   0.0117188
        k(   44) = (   0.6606137   0.3814055  -0.2316176), wk =   0.0117188
        k(   45) = (   0.6606137   0.1907027  -0.1852941), wk =   0.0234375
        k(   46) = (   0.4954603   0.2860541  -0.1389706), wk =   0.0117188
        k(   47) = (  -0.0000000   0.0000000   0.2779411), wk =   0.0039063
        k(   48) = (  -0.0000000  -0.1907027   0.3242646), wk =   0.0117188
        k(   49) = (   0.0000000   1.1442164   0.0000000), wk =   0.0117188
        k(   50) = (   0.0000000   0.9535137   0.0463235), wk =   0.0117188
        k(   51) = (   0.0000000   0.7628110   0.0926470), wk =   0.0117188
        k(   52) = (  -0.1651534  -0.0953514   0.3705882), wk =   0.0117188
        k(   53) = (  -0.1651534   1.2395678   0.0463235), wk =   0.0234375
        k(   54) = (  -0.1651534   1.0488651   0.0926470), wk =   0.0234375
        k(   55) = (  -0.1651534   0.8581623   0.1389706), wk =   0.0234375
        k(   56) = (   0.9909205   0.5721082  -0.2779411), wk =   0.0117188
        k(   57) = (   0.9909205   0.3814055  -0.2316176), wk =   0.0234375
        k(   58) = (   0.9909205   0.1907027  -0.1852941), wk =   0.0117188
        k(   59) = (   0.8257671   0.4767568  -0.1852941), wk =   0.0117188
        k(   60) = (  -0.0000000   0.0000000   0.4169117), wk =   0.0039063
        k(   61) = (  -0.0000000   1.3349192   0.0926470), wk =   0.0117188
        k(   62) = (  -0.0000000   1.1442164   0.1389706), wk =   0.0117188
        k(   63) = (   1.1560739   0.6674596  -0.2316176), wk =   0.0117188
        k(   64) = (   1.1560739   0.4767568  -0.1852941), wk =   0.0117188
        k(   65) = (   0.0000000   0.0000000  -0.5558822), wk =   0.0019531

                       cryst. coord.
        k(    1) = (   0.0000000   0.0000000   0.0000000), wk =   0.0019531
        k(    2) = (   0.0000000   0.0000000   0.1250000), wk =   0.0117188
        k(    3) = (   0.0000000   0.0000000   0.2500000), wk =   0.0117188
        k(    4) = (  -0.0000000   0.0000000   0.3750000), wk =   0.0117188
        k(    5) = (  -0.0000000  -0.0000000  -0.5000000), wk =   0.0058594
        k(    6) = (   0.0000000   0.1250000   0.1250000), wk =   0.0117188
        k(    7) = (  -0.0000000   0.1250000   0.2500000), wk =   0.0234375
        k(    8) = (   0.0000000   0.1250000   0.3750000), wk =   0.0234375
        k(    9) = (  -0.0000000   0.1250000  -0.5000000), wk =   0.0234375
        k(   10) = (   0.0000000   0.1250000  -0.3750000), wk =   0.0234375
        k(   11) = (  -0.0000000   0.1250000  -0.2500000), wk =   0.0234375
        k(   12) = (  -0.0000000   0.1250000  -0.1250000), wk =   0.0117188
        k(   13) = (   0.0000000   0.2500000   0.2500000), wk =   0.0117188
        k(   14) = (  -0.0000000   0.2500000   0.3750000), wk =   0.0234375
        k(   15) = (  -0.0000000   0.2500000  -0.5000000), wk =   0.0234375
        k(   16) = (  -0.0000000   0.2500000  -0.3750000), wk =   0.0234375
        k(   17) = (  -0.0000000   0.2500000  -0.2500000), wk =   0.0117188
        k(   18) = (  -0.0000000   0.3750000   0.3750000), wk =   0.0117188
        k(   19) = (  -0.0000000   0.3750000  -0.5000000), wk =   0.0234375
        k(   20) = (  -0.0000000   0.3750000  -0.3750000), wk =   0.0117188
        k(   21) = (  -0.0000000  -0.5000000  -0.5000000), wk =   0.0058594
        k(   22) = (   0.1250000   0.1250000   0.1250000), wk =   0.0039063
        k(   23) = (   0.1250000   0.1250000   0.2500000), wk =   0.0117188
        k(   24) = (   0.1250000   0.1250000   0.3750000), wk =   0.0117188
        k(   25) = (   0.1250000   0.1250000  -0.5000000), wk =   0.0117188
        k(   26) = (   0.1250000   0.1250000  -0.3750000), wk =   0.0117188
        k(   27) = (   0.1250000   0.1250000  -0.2500000), wk =   0.0117188
        k(   28) = (   0.1250000   0.1250000  -0.1250000), wk =   0.0117188
        k(   29) = (   0.1250000   0.2500000   0.2500000), wk =   0.0117188
        k(   30) = (   0.1250000   0.2500000   0.3750000), wk =   0.0234375
        k(   31) = (   0.1250000   0.2500000  -0.5000000), wk =   0.0234375
        k(   32) = (   0.1250000   0.2500000  -0.3750000), wk =   0.0234375
        k(   33) = (   0.1250000   0.2500000  -0.2500000), wk =   0.0234375
        k(   34) = (   0.1250000   0.2500000  -0.1250000), wk =   0.0234375
        k(   35) = (   0.1250000   0.3750000   0.3750000), wk =   0.0117188
        k(   36) = (   0.1250000   0.3750000  -0.5000000), wk =   0.0234375
        k(   37) = (   0.1250000   0.3750000  -0.3750000), wk =   0.0234375
        k(   38) = (   0.1250000   0.3750000  -0.2500000), wk =   0.0234375
        k(   39) = (   0.1250000   0.3750000  -0.1250000), wk =   0.0234375
        k(   40) = (   0.1250000  -0.5000000  -0.5000000), wk =   0.0117188
        k(   41) = (   0.1250000  -0.5000000  -0.3750000), wk =   0.0234375
        k(   42) = (   0.1250000  -0.5000000  -0.2500000), wk =   0.0234375
        k(   43) = (   0.1250000  -0.5000000  -0.1250000), wk =   0.0117188
        k(   44) = (   0.1250000  -0.3750000  -0.3750000), wk =   0.0117188
        k(   45) = (   0.1250000  -0.3750000  -0.2500000), wk =   0.0234375
        k(   46) = (   0.1250000  -0.2500000  -0.2500000), wk =   0.0117188
        k(   47) = (   0.2500000   0.2500000   0.2500000), wk =   0.0039063
        k(   48) = (   0.2500000   0.2500000   0.3750000), wk =   0.0117188
        k(   49) = (   0.2500000   0.2500000  -0.5000000), wk =   0.0117188
        k(   50) = (   0.2500000   0.2500000  -0.3750000), wk =   0.0117188
        k(   51) = (   0.2500000   0.2500000  -0.2500000), wk =   0.0117188
        k(   52) = (   0.2500000   0.3750000   0.3750000), wk =   0.0117188
        k(   53) = (   0.2500000   0.3750000  -0.5000000), wk =   0.0234375
        k(   54) = (   0.2500000   0.3750000  -0.3750000), wk =   0.0234375
        k(   55) = (   0.2500000   0.3750000  -0.2500000), wk =   0.0234375
        k(   56) = (   0.2500000  -0.5000000  -0.5000000), wk =   0.0117188
        k(   57) = (   0.2500000  -0.5000000  -0.3750000), wk =   0.0234375
        k(   58) = (   0.2500000  -0.5000000  -0.2500000), wk =   0.0117188
        k(   59) = (   0.2500000  -0.3750000  -0.3750000), wk =   0.0117188
        k(   60) = (   0.3750000   0.3750000   0.3750000), wk =   0.0039063
        k(   61) = (   0.3750000   0.3750000  -0.5000000), wk =   0.0117188
        k(   62) = (   0.3750000   0.3750000  -0.3750000), wk =   0.0117188
        k(   63) = (   0.3750000  -0.5000000  -0.5000000), wk =   0.0117188
        k(   64) = (   0.3750000  -0.5000000  -0.3750000), wk =   0.0117188
        k(   65) = (  -0.5000000  -0.5000000  -0.5000000), wk =   0.0019531

     Dense  grid:   405079 G-vectors     FFT dimensions: ( 125, 125, 125)

     Smooth grid:   143291 G-vectors     FFT dimensions: (  90,  90,  90)

     Dynamical RAM for                 wfc:      16.39 MB

     Dynamical RAM for     wfc (w. buffer):    2147.66 MB

     Dynamical RAM for           str. fact:      24.72 MB

     Dynamical RAM for           local pot:       0.00 MB

     Dynamical RAM for          nlocal pot:      52.74 MB

     Dynamical RAM for                qrad:       9.37 MB

     Dynamical RAM for          rho,v,vnew:     126.49 MB

     Dynamical RAM for               rhoin:      42.16 MB

     Dynamical RAM for            rho*nmix:     197.79 MB

     Dynamical RAM for           G-vectors:      24.27 MB

     Dynamical RAM for          h,s,v(r/c):       0.66 MB

     Dynamical RAM for          <psi|beta>:       0.18 MB

     Dynamical RAM for                 psi:      32.79 MB

     Dynamical RAM for                hpsi:      32.79 MB

     Dynamical RAM for                spsi:      32.79 MB

     Dynamical RAM for      wfcinit/wfcrot:      37.27 MB

     Dynamical RAM for           addusdens:    1563.80 MB

     Dynamical RAM for          addusforce:    1625.67 MB

     Dynamical RAM for         addusstress:    1622.52 MB

     Estimated static dynamical RAM per process >       2.49 GB

     Estimated max dynamical RAM per process >       4.27 GB
     Generating pointlists ...
     new r_m :   0.1122 (alat units)  1.9328 (a.u.) for type    1
     new r_m :   0.1122 (alat units)  1.9328 (a.u.) for type    2
     new r_m :   0.0649 (alat units)  1.1179 (a.u.) for type    3
     new r_m :   0.0649 (alat units)  1.1179 (a.u.) for type    4

     Initial potential from superposition of free atoms

     starting charge      99.4999, renormalised to     100.0000

     negative rho (up, down):  2.929E-01 1.628E-01
     Starting wfcs are   68 randomized atomic wfcs
     Checking if some PAW data can be deallocated... 

     total cpu time spent up to now is       15.9 secs

     Self-consistent Calculation
[tb_dev] Currently allocated     5.07E+00 Mbytes, locked:    0 /   8
[tb_pin] Currently allocated     0.00E+00 Mbytes, locked:    0 /   0

     iteration #  1     ecut=    60.00 Ry     beta= 0.40
     Davidson diagonalization with overlap

---- Real-time Memory Report at c_bands before calling an iterative solver
          3400 MiB given to the printing process from OS
          -947 MiB allocation reported by mallinfo(arena+hblkhd)
         55956 MiB available memory on the node where the printing process lives
     GPU memory used/free/total (MiB): 2434 / 13846 / 16280
------------------
     ethr =  1.00E-02,  avg # of iterations =  2.0

     negative rho (up, down):  2.352E-01 1.463E-01

     total cpu time spent up to now is       31.9 secs

     total energy              =    -596.52480020 Ry
     estimated scf accuracy    <      11.91601572 Ry

     total magnetization       =    10.37 Bohr mag/cell
     absolute magnetization    =    10.71 Bohr mag/cell
[tb_dev] Currently allocated     5.07E+00 Mbytes, locked:    0 /   6
[tb_pin] Currently allocated     0.00E+00 Mbytes, locked:    0 /   0

     iteration #  2     ecut=    60.00 Ry     beta= 0.40
     Davidson diagonalization with overlap

---- Real-time Memory Report at c_bands before calling an iterative solver
          3564 MiB given to the printing process from OS
          -824 MiB allocation reported by mallinfo(arena+hblkhd)
         55860 MiB available memory on the node where the printing process lives
     GPU memory used/free/total (MiB): 5892 / 10388 / 16280
------------------
     ethr =  1.00E-02,  avg # of iterations =  6.2

     negative rho (up, down):  2.377E-01 1.155E-01

     total cpu time spent up to now is       56.8 secs

     total energy              =    -599.80844605 Ry
     estimated scf accuracy    <      54.55122904 Ry

     total magnetization       =     6.90 Bohr mag/cell
     absolute magnetization    =     9.05 Bohr mag/cell
[tb_dev] Currently allocated     5.07E+00 Mbytes, locked:    0 /   6
[tb_pin] Currently allocated     0.00E+00 Mbytes, locked:    0 /   0

     iteration #  3     ecut=    60.00 Ry     beta= 0.40
     Davidson diagonalization with overlap

---- Real-time Memory Report at c_bands before calling an iterative solver
          3647 MiB given to the printing process from OS
          -805 MiB allocation reported by mallinfo(arena+hblkhd)
         55840 MiB available memory on the node where the printing process lives
     GPU memory used/free/total (MiB): 6548 / 9732 / 16280
------------------
     ethr =  1.00E-02,  avg # of iterations =  2.0

     negative rho (up, down):  2.393E-01 1.359E-01

     total cpu time spent up to now is       73.5 secs

     total energy              =    -602.20523564 Ry
     estimated scf accuracy    <       7.26921854 Ry

     total magnetization       =     9.21 Bohr mag/cell
     absolute magnetization    =     9.34 Bohr mag/cell
[tb_dev] Currently allocated     5.07E+00 Mbytes, locked:    0 /   6
[tb_pin] Currently allocated     0.00E+00 Mbytes, locked:    0 /   0

     iteration #  4     ecut=    60.00 Ry     beta= 0.40
     Davidson diagonalization with overlap

---- Real-time Memory Report at c_bands before calling an iterative solver
          3738 MiB given to the printing process from OS
          -782 MiB allocation reported by mallinfo(arena+hblkhd)
         55819 MiB available memory on the node where the printing process lives
     GPU memory used/free/total (MiB): 6548 / 9732 / 16280
------------------
     ethr =  7.27E-03,  avg # of iterations =  1.0

     negative rho (up, down):  2.394E-01 1.467E-01

     total cpu time spent up to now is       88.4 secs

     total energy              =    -602.08035439 Ry
     estimated scf accuracy    <      10.02447696 Ry

     total magnetization       =     5.92 Bohr mag/cell
     absolute magnetization    =     6.25 Bohr mag/cell
[tb_dev] Currently allocated     5.07E+00 Mbytes, locked:    0 /   6
[tb_pin] Currently allocated     0.00E+00 Mbytes, locked:    0 /   0

     iteration #  5     ecut=    60.00 Ry     beta= 0.40
     Davidson diagonalization with overlap

---- Real-time Memory Report at c_bands before calling an iterative solver
          3818 MiB given to the printing process from OS
          -767 MiB allocation reported by mallinfo(arena+hblkhd)
         55804 MiB available memory on the node where the printing process lives
     GPU memory used/free/total (MiB): 6548 / 9732 / 16280
------------------
     ethr =  7.27E-03,  avg # of iterations =  2.1

     negative rho (up, down):  2.387E-01 1.631E-01

     total cpu time spent up to now is      104.2 secs

     total energy              =    -602.41927614 Ry
     estimated scf accuracy    <       2.85105817 Ry

     total magnetization       =    10.41 Bohr mag/cell
     absolute magnetization    =    10.54 Bohr mag/cell
[tb_dev] Currently allocated     5.07E+00 Mbytes, locked:    0 /   6
[tb_pin] Currently allocated     0.00E+00 Mbytes, locked:    0 /   0

     iteration #  6     ecut=    60.00 Ry     beta= 0.40
     Davidson diagonalization with overlap

---- Real-time Memory Report at c_bands before calling an iterative solver
          3898 MiB given to the printing process from OS
          -753 MiB allocation reported by mallinfo(arena+hblkhd)
         55789 MiB available memory on the node where the printing process lives
     GPU memory used/free/total (MiB): 6548 / 9732 / 16280
------------------
     ethr =  2.85E-03,  avg # of iterations =  1.9

     negative rho (up, down):  2.349E-01 1.721E-01

     total cpu time spent up to now is      119.9 secs

     total energy              =    -602.68480979 Ry
     estimated scf accuracy    <       0.33386919 Ry

     total magnetization       =    12.91 Bohr mag/cell
     absolute magnetization    =    13.06 Bohr mag/cell
[tb_dev] Currently allocated     5.07E+00 Mbytes, locked:    0 /   6
[tb_pin] Currently allocated     0.00E+00 Mbytes, locked:    0 /   0

     iteration #  7     ecut=    60.00 Ry     beta= 0.40
     Davidson diagonalization with overlap

---- Real-time Memory Report at c_bands before calling an iterative solver
          3978 MiB given to the printing process from OS
          -738 MiB allocation reported by mallinfo(arena+hblkhd)
         55776 MiB available memory on the node where the printing process lives
     GPU memory used/free/total (MiB): 6548 / 9732 / 16280
------------------
     ethr =  3.34E-04,  avg # of iterations =  8.2

     negative rho (up, down):  2.326E-01 1.669E-01

     total cpu time spent up to now is      144.1 secs

     total energy              =    -602.80596155 Ry
     estimated scf accuracy    <       0.35954474 Ry

     total magnetization       =    15.23 Bohr mag/cell
     absolute magnetization    =    15.39 Bohr mag/cell
[tb_dev] Currently allocated     5.07E+00 Mbytes, locked:    0 /   6
[tb_pin] Currently allocated     0.00E+00 Mbytes, locked:    0 /   0

     iteration #  8     ecut=    60.00 Ry     beta= 0.40
     Davidson diagonalization with overlap

---- Real-time Memory Report at c_bands before calling an iterative solver
          4057 MiB given to the printing process from OS
          -724 MiB allocation reported by mallinfo(arena+hblkhd)
         55763 MiB available memory on the node where the printing process lives
     GPU memory used/free/total (MiB): 6548 / 9732 / 16280
------------------
     ethr =  3.34E-04,  avg # of iterations =  1.0

     negative rho (up, down):  2.301E-01 1.723E-01

     total cpu time spent up to now is      159.0 secs

     total energy              =    -602.87025975 Ry
     estimated scf accuracy    <       0.11928378 Ry

     total magnetization       =    14.82 Bohr mag/cell
     absolute magnetization    =    14.98 Bohr mag/cell
[tb_dev] Currently allocated     5.07E+00 Mbytes, locked:    0 /   6
[tb_pin] Currently allocated     0.00E+00 Mbytes, locked:    0 /   0

     iteration #  9     ecut=    60.00 Ry     beta= 0.40
     Davidson diagonalization with overlap

---- Real-time Memory Report at c_bands before calling an iterative solver
          4114 MiB given to the printing process from OS
          -710 MiB allocation reported by mallinfo(arena+hblkhd)
         55747 MiB available memory on the node where the printing process lives
     GPU memory used/free/total (MiB): 6548 / 9732 / 16280
------------------
     ethr =  1.19E-04,  avg # of iterations =  3.4

     negative rho (up, down):  2.284E-01 1.738E-01

     total cpu time spent up to now is      176.5 secs

     total energy              =    -602.88563839 Ry
     estimated scf accuracy    <       0.10501842 Ry

     total magnetization       =    15.03 Bohr mag/cell
     absolute magnetization    =    15.21 Bohr mag/cell
[tb_dev] Currently allocated     5.07E+00 Mbytes, locked:    0 /   6
[tb_pin] Currently allocated     0.00E+00 Mbytes, locked:    0 /   0

     iteration # 10     ecut=    60.00 Ry     beta= 0.40
     Davidson diagonalization with overlap

---- Real-time Memory Report at c_bands before calling an iterative solver
          4158 MiB given to the printing process from OS
          -695 MiB allocation reported by mallinfo(arena+hblkhd)
         55734 MiB available memory on the node where the printing process lives
     GPU memory used/free/total (MiB): 6548 / 9732 / 16280
------------------
     ethr =  1.05E-04,  avg # of iterations =  1.6

     negative rho (up, down):  2.264E-01 1.754E-01

     total cpu time spent up to now is      192.0 secs

     total energy              =    -602.89962673 Ry
     estimated scf accuracy    <       0.05916566 Ry

     total magnetization       =    14.80 Bohr mag/cell
     absolute magnetization    =    14.99 Bohr mag/cell
[tb_dev] Currently allocated     5.07E+00 Mbytes, locked:    0 /   6
[tb_pin] Currently allocated     0.00E+00 Mbytes, locked:    0 /   0

     iteration # 11     ecut=    60.00 Ry     beta= 0.40
     Davidson diagonalization with overlap

---- Real-time Memory Report at c_bands before calling an iterative solver
          4191 MiB given to the printing process from OS
          -690 MiB allocation reported by mallinfo(arena+hblkhd)
         55726 MiB available memory on the node where the printing process lives
     GPU memory used/free/total (MiB): 6548 / 9732 / 16280
------------------
     ethr =  5.92E-05,  avg # of iterations =  3.9

     negative rho (up, down):  2.260E-01 1.787E-01

     total cpu time spent up to now is      210.5 secs

     total energy              =    -602.89894872 Ry
     estimated scf accuracy    <       0.07951517 Ry

     total magnetization       =    14.27 Bohr mag/cell
     absolute magnetization    =    14.46 Bohr mag/cell
[tb_dev] Currently allocated     5.07E+00 Mbytes, locked:    0 /   6
[tb_pin] Currently allocated     0.00E+00 Mbytes, locked:    0 /   0

     iteration # 12     ecut=    60.00 Ry     beta= 0.40
     Davidson diagonalization with overlap

---- Real-time Memory Report at c_bands before calling an iterative solver
          4218 MiB given to the printing process from OS
          -684 MiB allocation reported by mallinfo(arena+hblkhd)
         55723 MiB available memory on the node where the printing process lives
     GPU memory used/free/total (MiB): 6548 / 9732 / 16280
------------------
     ethr =  5.92E-05,  avg # of iterations =  1.0

     negative rho (up, down):  2.249E-01 1.806E-01

     total cpu time spent up to now is      225.5 secs

     total energy              =    -602.90389577 Ry
     estimated scf accuracy    <       0.01712087 Ry

     total magnetization       =    14.72 Bohr mag/cell
     absolute magnetization    =    14.89 Bohr mag/cell
[tb_dev] Currently allocated     5.07E+00 Mbytes, locked:    0 /   6
[tb_pin] Currently allocated     0.00E+00 Mbytes, locked:    0 /   0

     iteration # 13     ecut=    60.00 Ry     beta= 0.40
     Davidson diagonalization with overlap

---- Real-time Memory Report at c_bands before calling an iterative solver
          4244 MiB given to the printing process from OS
          -679 MiB allocation reported by mallinfo(arena+hblkhd)
         55718 MiB available memory on the node where the printing process lives
     GPU memory used/free/total (MiB): 6548 / 9732 / 16280
------------------
     ethr =  1.71E-05,  avg # of iterations =  2.0

     negative rho (up, down):  2.237E-01 1.824E-01

     total cpu time spent up to now is      241.4 secs

     total energy              =    -602.90359126 Ry
     estimated scf accuracy    <       0.00773342 Ry

     total magnetization       =    14.65 Bohr mag/cell
     absolute magnetization    =    14.83 Bohr mag/cell
[tb_dev] Currently allocated     5.07E+00 Mbytes, locked:    0 /   6
[tb_pin] Currently allocated     0.00E+00 Mbytes, locked:    0 /   0

     iteration # 14     ecut=    60.00 Ry     beta= 0.40
     Davidson diagonalization with overlap

---- Real-time Memory Report at c_bands before calling an iterative solver
          4269 MiB given to the printing process from OS
          -673 MiB allocation reported by mallinfo(arena+hblkhd)
         55711 MiB available memory on the node where the printing process lives
     GPU memory used/free/total (MiB): 6548 / 9732 / 16280
------------------
     ethr =  7.73E-06,  avg # of iterations =  2.3

     negative rho (up, down):  2.231E-01 1.832E-01

     total cpu time spent up to now is      257.5 secs

     total energy              =    -602.90430947 Ry
     estimated scf accuracy    <       0.00179359 Ry

     total magnetization       =    14.55 Bohr mag/cell
     absolute magnetization    =    14.71 Bohr mag/cell
[tb_dev] Currently allocated     5.07E+00 Mbytes, locked:    0 /   6
[tb_pin] Currently allocated     0.00E+00 Mbytes, locked:    0 /   0

     iteration # 15     ecut=    60.00 Ry     beta= 0.40
     Davidson diagonalization with overlap

---- Real-time Memory Report at c_bands before calling an iterative solver
          4295 MiB given to the printing process from OS
          -668 MiB allocation reported by mallinfo(arena+hblkhd)
         55705 MiB available memory on the node where the printing process lives
     GPU memory used/free/total (MiB): 6548 / 9732 / 16280
------------------
     ethr =  1.79E-06,  avg # of iterations =  6.7

     negative rho (up, down):  2.223E-01 1.838E-01

     total cpu time spent up to now is      278.9 secs

     total energy              =    -602.90483721 Ry
     estimated scf accuracy    <       0.00249920 Ry

     total magnetization       =    14.39 Bohr mag/cell
     absolute magnetization    =    14.56 Bohr mag/cell
[tb_dev] Currently allocated     5.07E+00 Mbytes, locked:    0 /   6
[tb_pin] Currently allocated     0.00E+00 Mbytes, locked:    0 /   0

     iteration # 16     ecut=    60.00 Ry     beta= 0.40
     Davidson diagonalization with overlap

---- Real-time Memory Report at c_bands before calling an iterative solver
          4322 MiB given to the printing process from OS
          -662 MiB allocation reported by mallinfo(arena+hblkhd)
         55698 MiB available memory on the node where the printing process lives
     GPU memory used/free/total (MiB): 6548 / 9732 / 16280
------------------
     ethr =  1.79E-06,  avg # of iterations =  1.5

     negative rho (up, down):  2.219E-01 1.843E-01

     total cpu time spent up to now is      294.2 secs

     total energy              =    -602.90499523 Ry
     estimated scf accuracy    <       0.00125995 Ry

     total magnetization       =    14.28 Bohr mag/cell
     absolute magnetization    =    14.45 Bohr mag/cell
[tb_dev] Currently allocated     5.07E+00 Mbytes, locked:    0 /   6
[tb_pin] Currently allocated     0.00E+00 Mbytes, locked:    0 /   0

     iteration # 17     ecut=    60.00 Ry     beta= 0.40
     Davidson diagonalization with overlap

---- Real-time Memory Report at c_bands before calling an iterative solver
          4347 MiB given to the printing process from OS
          -657 MiB allocation reported by mallinfo(arena+hblkhd)
         55695 MiB available memory on the node where the printing process lives
     GPU memory used/free/total (MiB): 6548 / 9732 / 16280
------------------
     ethr =  1.26E-06,  avg # of iterations =  1.2

     negative rho (up, down):  2.206E-01 1.857E-01

     total cpu time spent up to now is      309.3 secs

     total energy              =    -602.90526280 Ry
     estimated scf accuracy    <       0.00070711 Ry

     total magnetization       =    14.29 Bohr mag/cell
     absolute magnetization    =    14.46 Bohr mag/cell
[tb_dev] Currently allocated     5.07E+00 Mbytes, locked:    0 /   6
[tb_pin] Currently allocated     0.00E+00 Mbytes, locked:    0 /   0

     iteration # 18     ecut=    60.00 Ry     beta= 0.40
     Davidson diagonalization with overlap

---- Real-time Memory Report at c_bands before calling an iterative solver
          4357 MiB given to the printing process from OS
          -651 MiB allocation reported by mallinfo(arena+hblkhd)
         55690 MiB available memory on the node where the printing process lives
     GPU memory used/free/total (MiB): 6548 / 9732 / 16280
------------------
     ethr =  7.07E-07,  avg # of iterations =  1.9

     negative rho (up, down):  2.201E-01 1.862E-01

     total cpu time spent up to now is      325.1 secs

     total energy              =    -602.90545339 Ry
     estimated scf accuracy    <       0.00052982 Ry

     total magnetization       =    14.13 Bohr mag/cell
     absolute magnetization    =    14.28 Bohr mag/cell
[tb_dev] Currently allocated     5.07E+00 Mbytes, locked:    0 /   6
[tb_pin] Currently allocated     0.00E+00 Mbytes, locked:    0 /   0

     iteration # 19     ecut=    60.00 Ry     beta= 0.40
     Davidson diagonalization with overlap

---- Real-time Memory Report at c_bands before calling an iterative solver
          4367 MiB given to the printing process from OS
          -645 MiB allocation reported by mallinfo(arena+hblkhd)
         55685 MiB available memory on the node where the printing process lives
     GPU memory used/free/total (MiB): 6548 / 9732 / 16280
------------------
     ethr =  5.30E-07,  avg # of iterations =  1.1

     negative rho (up, down):  2.197E-01 1.867E-01

     total cpu time spent up to now is      340.3 secs

     total energy              =    -602.90555679 Ry
     estimated scf accuracy    <       0.00036288 Ry

     total magnetization       =    14.07 Bohr mag/cell
     absolute magnetization    =    14.22 Bohr mag/cell
[tb_dev] Currently allocated     5.07E+00 Mbytes, locked:    0 /   6
[tb_pin] Currently allocated     0.00E+00 Mbytes, locked:    0 /   0

     iteration # 20     ecut=    60.00 Ry     beta= 0.40
     Davidson diagonalization with overlap

---- Real-time Memory Report at c_bands before calling an iterative solver
          4377 MiB given to the printing process from OS
          -640 MiB allocation reported by mallinfo(arena+hblkhd)
         55677 MiB available memory on the node where the printing process lives
     GPU memory used/free/total (MiB): 6548 / 9732 / 16280
------------------
     ethr =  3.63E-07,  avg # of iterations =  1.1

     negative rho (up, down):  2.178E-01 1.887E-01

     total cpu time spent up to now is      355.8 secs

     total energy              =    -602.90572604 Ry
     estimated scf accuracy    <       0.00037290 Ry

     total magnetization       =    14.01 Bohr mag/cell
     absolute magnetization    =    14.17 Bohr mag/cell
[tb_dev] Currently allocated     5.07E+00 Mbytes, locked:    0 /   6
[tb_pin] Currently allocated     0.00E+00 Mbytes, locked:    0 /   0

     iteration # 21     ecut=    60.00 Ry     beta= 0.40
     Davidson diagonalization with overlap

---- Real-time Memory Report at c_bands before calling an iterative solver
          4392 MiB given to the printing process from OS
          -634 MiB allocation reported by mallinfo(arena+hblkhd)
         55675 MiB available memory on the node where the printing process lives
     GPU memory used/free/total (MiB): 6548 / 9732 / 16280
------------------
     ethr =  3.63E-07,  avg # of iterations =  3.4

     negative rho (up, down):  2.175E-01 1.889E-01

     total cpu time spent up to now is      373.4 secs

     total energy              =    -602.90602900 Ry
     estimated scf accuracy    <       0.00039198 Ry

     total magnetization       =    13.76 Bohr mag/cell
     absolute magnetization    =    13.90 Bohr mag/cell
[tb_dev] Currently allocated     5.07E+00 Mbytes, locked:    0 /   6
[tb_pin] Currently allocated     0.00E+00 Mbytes, locked:    0 /   0

     iteration # 22     ecut=    60.00 Ry     beta= 0.40
     Davidson diagonalization with overlap

---- Real-time Memory Report at c_bands before calling an iterative solver
          4402 MiB given to the printing process from OS
          -629 MiB allocation reported by mallinfo(arena+hblkhd)
         55670 MiB available memory on the node where the printing process lives
     GPU memory used/free/total (MiB): 6548 / 9732 / 16280
------------------
     ethr =  3.63E-07,  avg # of iterations =  1.1

     negative rho (up, down):  2.200E-01 1.865E-01

     total cpu time spent up to now is      388.8 secs

     total energy              =    -602.90503850 Ry
     estimated scf accuracy    <       0.00026575 Ry

     total magnetization       =    13.73 Bohr mag/cell
     absolute magnetization    =    13.87 Bohr mag/cell
[tb_dev] Currently allocated     5.07E+00 Mbytes, locked:    0 /   6
[tb_pin] Currently allocated     0.00E+00 Mbytes, locked:    0 /   0

     iteration # 23     ecut=    60.00 Ry     beta= 0.40
     Davidson diagonalization with overlap

---- Real-time Memory Report at c_bands before calling an iterative solver
          4413 MiB given to the printing process from OS
          -623 MiB allocation reported by mallinfo(arena+hblkhd)
         55665 MiB available memory on the node where the printing process lives
     GPU memory used/free/total (MiB): 6548 / 9732 / 16280
------------------
     ethr =  2.66E-07,  avg # of iterations =  2.0

     negative rho (up, down):  2.249E-01 1.817E-01

     total cpu time spent up to now is      406.4 secs

     total energy              =    -602.90281125 Ry
     estimated scf accuracy    <       0.00019052 Ry

     total magnetization       =    14.08 Bohr mag/cell
     absolute magnetization    =    14.24 Bohr mag/cell
[tb_dev] Currently allocated     5.07E+00 Mbytes, locked:    0 /   6
[tb_pin] Currently allocated     0.00E+00 Mbytes, locked:    0 /   0

     iteration # 24     ecut=    60.00 Ry     beta= 0.40
     Davidson diagonalization with overlap

---- Real-time Memory Report at c_bands before calling an iterative solver
          4418 MiB given to the printing process from OS
          -618 MiB allocation reported by mallinfo(arena+hblkhd)
         55656 MiB available memory on the node where the printing process lives
     GPU memory used/free/total (MiB): 6548 / 9732 / 16280
------------------
     ethr =  1.91E-07,  avg # of iterations =  4.0

     negative rho (up, down):  2.268E-01 1.798E-01

     total cpu time spent up to now is      428.3 secs

     total energy              =    -602.90363510 Ry
     estimated scf accuracy    <       0.00033508 Ry

     total magnetization       =    14.70 Bohr mag/cell
     absolute magnetization    =    14.89 Bohr mag/cell
[tb_dev] Currently allocated     5.07E+00 Mbytes, locked:    0 /   6
[tb_pin] Currently allocated     0.00E+00 Mbytes, locked:    0 /   0

     iteration # 25     ecut=    60.00 Ry     beta= 0.40
     Davidson diagonalization with overlap

---- Real-time Memory Report at c_bands before calling an iterative solver
          4424 MiB given to the printing process from OS
          -612 MiB allocation reported by mallinfo(arena+hblkhd)
         55651 MiB available memory on the node where the printing process lives
     GPU memory used/free/total (MiB): 6548 / 9732 / 16280
------------------
     ethr =  1.91E-07,  avg # of iterations =  2.3

     negative rho (up, down):  2.174E-01 1.889E-01

     total cpu time spent up to now is      446.6 secs

     total energy              =    -602.90101073 Ry
     estimated scf accuracy    <       0.00050432 Ry

     total magnetization       =    14.91 Bohr mag/cell
     absolute magnetization    =    15.11 Bohr mag/cell
[tb_dev] Currently allocated     5.07E+00 Mbytes, locked:    0 /   6
[tb_pin] Currently allocated     0.00E+00 Mbytes, locked:    0 /   0

     iteration # 26     ecut=    60.00 Ry     beta= 0.40
     Davidson diagonalization with overlap

---- Real-time Memory Report at c_bands before calling an iterative solver
          4429 MiB given to the printing process from OS
          -607 MiB allocation reported by mallinfo(arena+hblkhd)
         55648 MiB available memory on the node where the printing process lives
     GPU memory used/free/total (MiB): 6548 / 9732 / 16280
------------------
     ethr =  1.91E-07,  avg # of iterations =  4.5

     negative rho (up, down):  2.084E-01 1.980E-01

     total cpu time spent up to now is      471.3 secs

     total energy              =    -602.90302248 Ry
     estimated scf accuracy    <       0.00074284 Ry

     total magnetization       =    13.74 Bohr mag/cell
     absolute magnetization    =    13.88 Bohr mag/cell
[tb_dev] Currently allocated     5.07E+00 Mbytes, locked:    0 /   6
[tb_pin] Currently allocated     0.00E+00 Mbytes, locked:    0 /   0

     iteration # 27     ecut=    60.00 Ry     beta= 0.40
     Davidson diagonalization with overlap

---- Real-time Memory Report at c_bands before calling an iterative solver
          4435 MiB given to the printing process from OS
          -601 MiB allocation reported by mallinfo(arena+hblkhd)
         55642 MiB available memory on the node where the printing process lives
     GPU memory used/free/total (MiB): 6548 / 9732 / 16280
------------------
     ethr =  1.91E-07,  avg # of iterations =  6.1

     negative rho (up, down):  2.160E-01 1.903E-01

     total cpu time spent up to now is      498.4 secs

     total energy              =    -602.90124359 Ry
     estimated scf accuracy    <       0.00513731 Ry

     total magnetization       =    12.33 Bohr mag/cell
     absolute magnetization    =    12.58 Bohr mag/cell
[tb_dev] Currently allocated     5.07E+00 Mbytes, locked:    0 /   6
[tb_pin] Currently allocated     0.00E+00 Mbytes, locked:    0 /   0

     iteration # 28     ecut=    60.00 Ry     beta= 0.40
     Davidson diagonalization with overlap

---- Real-time Memory Report at c_bands before calling an iterative solver
          4440 MiB given to the printing process from OS
          -596 MiB allocation reported by mallinfo(arena+hblkhd)
         55634 MiB available memory on the node where the printing process lives
     GPU memory used/free/total (MiB): 6548 / 9732 / 16280
------------------
     ethr =  1.91E-07,  avg # of iterations =  4.6

     negative rho (up, down):  2.176E-01 1.887E-01

     total cpu time spent up to now is      522.2 secs

     total energy              =    -602.90588123 Ry
     estimated scf accuracy    <       0.00102793 Ry

     total magnetization       =    13.54 Bohr mag/cell
     absolute magnetization    =    13.66 Bohr mag/cell
[tb_dev] Currently allocated     5.07E+00 Mbytes, locked:    0 /   6
[tb_pin] Currently allocated     0.00E+00 Mbytes, locked:    0 /   0

     iteration # 29     ecut=    60.00 Ry     beta= 0.40
     Davidson diagonalization with overlap

---- Real-time Memory Report at c_bands before calling an iterative solver
          4445 MiB given to the printing process from OS
          -590 MiB allocation reported by mallinfo(arena+hblkhd)
         55629 MiB available memory on the node where the printing process lives
     GPU memory used/free/total (MiB): 6548 / 9732 / 16280
------------------
     ethr =  1.91E-07,  avg # of iterations =  2.0

     negative rho (up, down):  2.189E-01 1.874E-01

     total cpu time spent up to now is      539.2 secs

     total energy              =    -602.90563321 Ry
     estimated scf accuracy    <       0.00078950 Ry

     total magnetization       =    13.77 Bohr mag/cell
     absolute magnetization    =    13.90 Bohr mag/cell
[tb_dev] Currently allocated     5.07E+00 Mbytes, locked:    0 /   6
[tb_pin] Currently allocated     0.00E+00 Mbytes, locked:    0 /   0

     iteration # 30     ecut=    60.00 Ry     beta= 0.40
     Davidson diagonalization with overlap

---- Real-time Memory Report at c_bands before calling an iterative solver
          4450 MiB given to the printing process from OS
          -585 MiB allocation reported by mallinfo(arena+hblkhd)
         55624 MiB available memory on the node where the printing process lives
     GPU memory used/free/total (MiB): 6548 / 9732 / 16280
------------------
     ethr =  1.91E-07,  avg # of iterations =  2.0

     negative rho (up, down):  2.214E-01 1.849E-01

     total cpu time spent up to now is      555.7 secs

     total energy              =    -602.90479857 Ry
     estimated scf accuracy    <       0.00071212 Ry

     total magnetization       =    13.96 Bohr mag/cell
     absolute magnetization    =    14.10 Bohr mag/cell
[tb_dev] Currently allocated     5.07E+00 Mbytes, locked:    0 /   6
[tb_pin] Currently allocated     0.00E+00 Mbytes, locked:    0 /   0

     iteration # 31     ecut=    60.00 Ry     beta= 0.40
     Davidson diagonalization with overlap

---- Real-time Memory Report at c_bands before calling an iterative solver
          4456 MiB given to the printing process from OS
          -579 MiB allocation reported by mallinfo(arena+hblkhd)
         55620 MiB available memory on the node where the printing process lives
     GPU memory used/free/total (MiB): 6548 / 9732 / 16280
------------------
     ethr =  1.91E-07,  avg # of iterations =  2.9

     negative rho (up, down):  2.239E-01 1.823E-01

     total cpu time spent up to now is      575.0 secs

     total energy              =    -602.90427992 Ry
     estimated scf accuracy    <       0.00096408 Ry

     total magnetization       =    14.31 Bohr mag/cell
     absolute magnetization    =    14.47 Bohr mag/cell
[tb_dev] Currently allocated     5.07E+00 Mbytes, locked:    0 /   6
[tb_pin] Currently allocated     0.00E+00 Mbytes, locked:    0 /   0

     iteration # 32     ecut=    60.00 Ry     beta= 0.40
     Davidson diagonalization with overlap

---- Real-time Memory Report at c_bands before calling an iterative solver
          4462 MiB given to the printing process from OS
          -574 MiB allocation reported by mallinfo(arena+hblkhd)
         55610 MiB available memory on the node where the printing process lives
     GPU memory used/free/total (MiB): 6548 / 9732 / 16280
------------------
     ethr =  1.91E-07,  avg # of iterations =  3.0

     negative rho (up, down):  2.277E-01 1.786E-01

     total cpu time spent up to now is      594.7 secs

     total energy              =    -602.90282595 Ry
     estimated scf accuracy    <       0.00117093 Ry

     total magnetization       =    14.63 Bohr mag/cell
     absolute magnetization    =    14.81 Bohr mag/cell
[tb_dev] Currently allocated     5.07E+00 Mbytes, locked:    0 /   6
[tb_pin] Currently allocated     0.00E+00 Mbytes, locked:    0 /   0

     iteration # 33     ecut=    60.00 Ry     beta= 0.40
     Davidson diagonalization with overlap

---- Real-time Memory Report at c_bands before calling an iterative solver
          4467 MiB given to the printing process from OS
          -568 MiB allocation reported by mallinfo(arena+hblkhd)
         55609 MiB available memory on the node where the printing process lives
     GPU memory used/free/total (MiB): 6548 / 9732 / 16280
------------------
     ethr =  1.91E-07,  avg # of iterations =  4.3

     negative rho (up, down):  2.226E-01 1.836E-01

     total cpu time spent up to now is      616.5 secs

     total energy              =    -602.90363090 Ry
     estimated scf accuracy    <       0.00168108 Ry

     total magnetization       =    15.05 Bohr mag/cell
     absolute magnetization    =    15.25 Bohr mag/cell
[tb_dev] Currently allocated     5.07E+00 Mbytes, locked:    0 /   6
[tb_pin] Currently allocated     0.00E+00 Mbytes, locked:    0 /   0

     iteration # 34     ecut=    60.00 Ry     beta= 0.40
     Davidson diagonalization with overlap

---- Real-time Memory Report at c_bands before calling an iterative solver
          4473 MiB given to the printing process from OS
          -563 MiB allocation reported by mallinfo(arena+hblkhd)
         55603 MiB available memory on the node where the printing process lives
     GPU memory used/free/total (MiB): 6548 / 9732 / 16280
------------------
     ethr =  1.91E-07,  avg # of iterations =  3.4

     negative rho (up, down):  2.160E-01 1.903E-01

     total cpu time spent up to now is      637.3 secs

     total energy              =    -602.90343978 Ry
     estimated scf accuracy    <       0.00069065 Ry

     total magnetization       =    14.47 Bohr mag/cell
     absolute magnetization    =    14.64 Bohr mag/cell
[tb_dev] Currently allocated     5.07E+00 Mbytes, locked:    0 /   6
[tb_pin] Currently allocated     0.00E+00 Mbytes, locked:    0 /   0

     iteration # 35     ecut=    60.00 Ry     beta= 0.40
     Davidson diagonalization with overlap

---- Real-time Memory Report at c_bands before calling an iterative solver
          4479 MiB given to the printing process from OS
          -557 MiB allocation reported by mallinfo(arena+hblkhd)
         55596 MiB available memory on the node where the printing process lives
     GPU memory used/free/total (MiB): 6548 / 9732 / 16280
------------------
     ethr =  1.91E-07,  avg # of iterations =  5.0

     negative rho (up, down):  2.130E-01 1.933E-01

     total cpu time spent up to now is      661.3 secs

     total energy              =    -602.90678324 Ry
     estimated scf accuracy    <       0.00090269 Ry

     total magnetization       =    13.54 Bohr mag/cell
     absolute magnetization    =    13.67 Bohr mag/cell
[tb_dev] Currently allocated     5.07E+00 Mbytes, locked:    0 /   6
[tb_pin] Currently allocated     0.00E+00 Mbytes, locked:    0 /   0

     iteration # 36     ecut=    60.00 Ry     beta= 0.40
     Davidson diagonalization with overlap

---- Real-time Memory Report at c_bands before calling an iterative solver
          4485 MiB given to the printing process from OS
          -551 MiB allocation reported by mallinfo(arena+hblkhd)
         55588 MiB available memory on the node where the printing process lives
     GPU memory used/free/total (MiB): 6548 / 9732 / 16280
------------------
     ethr =  1.91E-07,  avg # of iterations =  2.8

     negative rho (up, down):  2.080E-01 1.985E-01

     total cpu time spent up to now is      681.4 secs

     total energy              =    -602.90791424 Ry
     estimated scf accuracy    <       0.00203863 Ry

     total magnetization       =    13.09 Bohr mag/cell
     absolute magnetization    =    13.19 Bohr mag/cell
[tb_dev] Currently allocated     5.07E+00 Mbytes, locked:    0 /   6
[tb_pin] Currently allocated     0.00E+00 Mbytes, locked:    0 /   0

     iteration # 37     ecut=    60.00 Ry     beta= 0.40
     Davidson diagonalization with overlap

---- Real-time Memory Report at c_bands before calling an iterative solver
          4490 MiB given to the printing process from OS
          -546 MiB allocation reported by mallinfo(arena+hblkhd)
         55587 MiB available memory on the node where the printing process lives
     GPU memory used/free/total (MiB): 6548 / 9732 / 16280
------------------
     ethr =  1.91E-07,  avg # of iterations =  4.9

     negative rho (up, down):  2.148E-01 1.914E-01

     total cpu time spent up to now is      704.4 secs

     total energy              =    -602.90260997 Ry
     estimated scf accuracy    <       0.00629232 Ry

     total magnetization       =    12.28 Bohr mag/cell
     absolute magnetization    =    12.57 Bohr mag/cell
[tb_dev] Currently allocated     5.07E+00 Mbytes, locked:    0 /   6
[tb_pin] Currently allocated     0.00E+00 Mbytes, locked:    0 /   0

     iteration # 38     ecut=    60.00 Ry     beta= 0.40
     Davidson diagonalization with overlap

---- Real-time Memory Report at c_bands before calling an iterative solver
          4500 MiB given to the printing process from OS
          -540 MiB allocation reported by mallinfo(arena+hblkhd)
         55582 MiB available memory on the node where the printing process lives
     GPU memory used/free/total (MiB): 6548 / 9732 / 16280
------------------
     ethr =  1.91E-07,  avg # of iterations =  4.7

     negative rho (up, down):  2.147E-01 1.915E-01

     total cpu time spent up to now is      727.4 secs

     total energy              =    -602.90690088 Ry
     estimated scf accuracy    <       0.00142282 Ry

     total magnetization       =    13.38 Bohr mag/cell
     absolute magnetization    =    13.50 Bohr mag/cell
[tb_dev] Currently allocated     5.07E+00 Mbytes, locked:    0 /   6
[tb_pin] Currently allocated     0.00E+00 Mbytes, locked:    0 /   0

     iteration # 39     ecut=    60.00 Ry     beta= 0.40
     Davidson diagonalization with overlap

---- Real-time Memory Report at c_bands before calling an iterative solver
          4506 MiB given to the printing process from OS
          -535 MiB allocation reported by mallinfo(arena+hblkhd)
         55575 MiB available memory on the node where the printing process lives
     GPU memory used/free/total (MiB): 6548 / 9732 / 16280
------------------
     ethr =  1.91E-07,  avg # of iterations =  1.0

     negative rho (up, down):  2.169E-01 1.893E-01

     total cpu time spent up to now is      742.3 secs

     total energy              =    -602.90589714 Ry
     estimated scf accuracy    <       0.00155927 Ry

     total magnetization       =    13.36 Bohr mag/cell
     absolute magnetization    =    13.48 Bohr mag/cell
[tb_dev] Currently allocated     5.07E+00 Mbytes, locked:    0 /   6
[tb_pin] Currently allocated     0.00E+00 Mbytes, locked:    0 /   0

     iteration # 40     ecut=    60.00 Ry     beta= 0.40
     Davidson diagonalization with overlap

---- Real-time Memory Report at c_bands before calling an iterative solver
          4511 MiB given to the printing process from OS
          -529 MiB allocation reported by mallinfo(arena+hblkhd)
         55567 MiB available memory on the node where the printing process lives
     GPU memory used/free/total (MiB): 6548 / 9732 / 16280
------------------
     ethr =  1.91E-07,  avg # of iterations =  2.1

     negative rho (up, down):  2.167E-01 1.895E-01

     total cpu time spent up to now is      760.1 secs

     total energy              =    -602.90632888 Ry
     estimated scf accuracy    <       0.00125300 Ry

     total magnetization       =    13.69 Bohr mag/cell
     absolute magnetization    =    13.82 Bohr mag/cell
[tb_dev] Currently allocated     5.07E+00 Mbytes, locked:    0 /   6
[tb_pin] Currently allocated     0.00E+00 Mbytes, locked:    0 /   0

     iteration # 41     ecut=    60.00 Ry     beta= 0.40
     Davidson diagonalization with overlap

---- Real-time Memory Report at c_bands before calling an iterative solver
          4517 MiB given to the printing process from OS
          -524 MiB allocation reported by mallinfo(arena+hblkhd)
         55564 MiB available memory on the node where the printing process lives
     GPU memory used/free/total (MiB): 6548 / 9732 / 16280
------------------
     ethr =  1.91E-07,  avg # of iterations =  1.0

     negative rho (up, down):  2.163E-01 1.899E-01

     total cpu time spent up to now is      775.3 secs

     total energy              =    -602.90642348 Ry
     estimated scf accuracy    <       0.00134715 Ry

     total magnetization       =    13.67 Bohr mag/cell
     absolute magnetization    =    13.80 Bohr mag/cell
[tb_dev] Currently allocated     5.07E+00 Mbytes, locked:    0 /   6
[tb_pin] Currently allocated     0.00E+00 Mbytes, locked:    0 /   0

     iteration # 42     ecut=    60.00 Ry     beta= 0.40
     Davidson diagonalization with overlap

---- Real-time Memory Report at c_bands before calling an iterative solver
          4522 MiB given to the printing process from OS
          -518 MiB allocation reported by mallinfo(arena+hblkhd)
         55558 MiB available memory on the node where the printing process lives
     GPU memory used/free/total (MiB): 6548 / 9732 / 16280
------------------
     ethr =  1.91E-07,  avg # of iterations =  1.0

     negative rho (up, down):  2.211E-01 1.851E-01

     total cpu time spent up to now is      790.2 secs

     total energy              =    -602.90359274 Ry
     estimated scf accuracy    <       0.00137618 Ry

     total magnetization       =    13.61 Bohr mag/cell
     absolute magnetization    =    13.74 Bohr mag/cell
[tb_dev] Currently allocated     5.07E+00 Mbytes, locked:    0 /   6
[tb_pin] Currently allocated     0.00E+00 Mbytes, locked:    0 /   0

     iteration # 43     ecut=    60.00 Ry     beta= 0.40
     Davidson diagonalization with overlap

---- Real-time Memory Report at c_bands before calling an iterative solver
          4528 MiB given to the printing process from OS
          -513 MiB allocation reported by mallinfo(arena+hblkhd)
         55552 MiB available memory on the node where the printing process lives
     GPU memory used/free/total (MiB): 6548 / 9732 / 16280
------------------
     ethr =  1.91E-07,  avg # of iterations =  3.8

     negative rho (up, down):  2.214E-01 1.848E-01

     total cpu time spent up to now is      811.6 secs

     total energy              =    -602.90527092 Ry
     estimated scf accuracy    <       0.00132474 Ry

     total magnetization       =    14.29 Bohr mag/cell
     absolute magnetization    =    14.46 Bohr mag/cell
[tb_dev] Currently allocated     5.07E+00 Mbytes, locked:    0 /   6
[tb_pin] Currently allocated     0.00E+00 Mbytes, locked:    0 /   0

     iteration # 44     ecut=    60.00 Ry     beta= 0.40
     Davidson diagonalization with overlap

---- Real-time Memory Report at c_bands before calling an iterative solver
          4533 MiB given to the printing process from OS
          -507 MiB allocation reported by mallinfo(arena+hblkhd)
         55544 MiB available memory on the node where the printing process lives
     GPU memory used/free/total (MiB): 6548 / 9732 / 16280
------------------
     ethr =  1.91E-07,  avg # of iterations =  1.0

     negative rho (up, down):  2.213E-01 1.849E-01

     total cpu time spent up to now is      826.7 secs

     total energy              =    -602.90530713 Ry
     estimated scf accuracy    <       0.00133156 Ry

     total magnetization       =    14.33 Bohr mag/cell
     absolute magnetization    =    14.49 Bohr mag/cell
[tb_dev] Currently allocated     5.07E+00 Mbytes, locked:    0 /   6
[tb_pin] Currently allocated     0.00E+00 Mbytes, locked:    0 /   0

     iteration # 45     ecut=    60.00 Ry     beta= 0.40
     Davidson diagonalization with overlap

---- Real-time Memory Report at c_bands before calling an iterative solver
          4539 MiB given to the printing process from OS
          -502 MiB allocation reported by mallinfo(arena+hblkhd)
         55543 MiB available memory on the node where the printing process lives
     GPU memory used/free/total (MiB): 6548 / 9732 / 16280
------------------
     ethr =  1.91E-07,  avg # of iterations =  1.0

     negative rho (up, down):  2.204E-01 1.858E-01

     total cpu time spent up to now is      841.7 secs

     total energy              =    -602.90545285 Ry
     estimated scf accuracy    <       0.00135591 Ry

     total magnetization       =    14.32 Bohr mag/cell
     absolute magnetization    =    14.48 Bohr mag/cell
[tb_dev] Currently allocated     5.07E+00 Mbytes, locked:    0 /   6
[tb_pin] Currently allocated     0.00E+00 Mbytes, locked:    0 /   0

     iteration # 46     ecut=    60.00 Ry     beta= 0.40
     Davidson diagonalization with overlap

---- Real-time Memory Report at c_bands before calling an iterative solver
          4544 MiB given to the printing process from OS
          -496 MiB allocation reported by mallinfo(arena+hblkhd)
         55538 MiB available memory on the node where the printing process lives
     GPU memory used/free/total (MiB): 6548 / 9732 / 16280
------------------
     ethr =  1.91E-07,  avg # of iterations =  1.5

     negative rho (up, down):  2.105E-01 1.960E-01

     total cpu time spent up to now is      857.2 secs

     total energy              =    -602.90132924 Ry
     estimated scf accuracy    <       0.00142355 Ry

     total magnetization       =    14.20 Bohr mag/cell
     absolute magnetization    =    14.36 Bohr mag/cell
[tb_dev] Currently allocated     5.07E+00 Mbytes, locked:    0 /   6
[tb_pin] Currently allocated     0.00E+00 Mbytes, locked:    0 /   0

     iteration # 47     ecut=    60.00 Ry     beta= 0.40
     Davidson diagonalization with overlap

---- Real-time Memory Report at c_bands before calling an iterative solver
          4549 MiB given to the printing process from OS
          -491 MiB allocation reported by mallinfo(arena+hblkhd)
         55530 MiB available memory on the node where the printing process lives
     GPU memory used/free/total (MiB): 6548 / 9732 / 16280
------------------
     ethr =  1.91E-07,  avg # of iterations =  5.2

     negative rho (up, down):  2.130E-01 1.935E-01

     total cpu time spent up to now is      882.4 secs

     total energy              =    -602.90719124 Ry
     estimated scf accuracy    <       0.00646063 Ry

     total magnetization       =    12.69 Bohr mag/cell
     absolute magnetization    =    12.81 Bohr mag/cell
[tb_dev] Currently allocated     5.07E+00 Mbytes, locked:    0 /   6
[tb_pin] Currently allocated     0.00E+00 Mbytes, locked:    0 /   0

     iteration # 48     ecut=    60.00 Ry     beta= 0.40
     Davidson diagonalization with overlap

---- Real-time Memory Report at c_bands before calling an iterative solver
          4559 MiB given to the printing process from OS
          -485 MiB allocation reported by mallinfo(arena+hblkhd)
         55524 MiB available memory on the node where the printing process lives
     GPU memory used/free/total (MiB): 6548 / 9732 / 16280
------------------
     ethr =  1.91E-07,  avg # of iterations =  2.4

     negative rho (up, down):  2.134E-01 1.930E-01

     total cpu time spent up to now is      900.9 secs

     total energy              =    -602.90751266 Ry
     estimated scf accuracy    <       0.00381567 Ry

     total magnetization       =    13.07 Bohr mag/cell
     absolute magnetization    =    13.18 Bohr mag/cell
[tb_dev] Currently allocated     5.07E+00 Mbytes, locked:    0 /   6
[tb_pin] Currently allocated     0.00E+00 Mbytes, locked:    0 /   0

     iteration # 49     ecut=    60.00 Ry     beta= 0.40
     Davidson diagonalization with overlap

---- Real-time Memory Report at c_bands before calling an iterative solver
          4565 MiB given to the printing process from OS
          -480 MiB allocation reported by mallinfo(arena+hblkhd)
         55521 MiB available memory on the node where the printing process lives
     GPU memory used/free/total (MiB): 6548 / 9732 / 16280
------------------
     ethr =  1.91E-07,  avg # of iterations =  1.4

     negative rho (up, down):  2.130E-01 1.932E-01

     total cpu time spent up to now is      916.2 secs

     total energy              =    -602.90746044 Ry
     estimated scf accuracy    <       0.00342654 Ry

     total magnetization       =    13.14 Bohr mag/cell
     absolute magnetization    =    13.25 Bohr mag/cell
[tb_dev] Currently allocated     5.07E+00 Mbytes, locked:    0 /   6
[tb_pin] Currently allocated     0.00E+00 Mbytes, locked:    0 /   0

     iteration # 50     ecut=    60.00 Ry     beta= 0.40
     Davidson diagonalization with overlap

---- Real-time Memory Report at c_bands before calling an iterative solver
          4570 MiB given to the printing process from OS
          -474 MiB allocation reported by mallinfo(arena+hblkhd)
         55513 MiB available memory on the node where the printing process lives
     GPU memory used/free/total (MiB): 6548 / 9732 / 16280
------------------
     ethr =  1.91E-07,  avg # of iterations =  1.6

     negative rho (up, down):  2.210E-01 1.849E-01

     total cpu time spent up to now is      932.0 secs

     total energy              =    -602.89988707 Ry
     estimated scf accuracy    <       0.00367274 Ry

     total magnetization       =    13.10 Bohr mag/cell
     absolute magnetization    =    13.21 Bohr mag/cell
[tb_dev] Currently allocated     5.07E+00 Mbytes, locked:    0 /   6
[tb_pin] Currently allocated     0.00E+00 Mbytes, locked:    0 /   0

     iteration # 51     ecut=    60.00 Ry     beta= 0.40
     Davidson diagonalization with overlap

---- Real-time Memory Report at c_bands before calling an iterative solver
          4575 MiB given to the printing process from OS
          -468 MiB allocation reported by mallinfo(arena+hblkhd)
         55510 MiB available memory on the node where the printing process lives
     GPU memory used/free/total (MiB): 6548 / 9732 / 16280
------------------
     ethr =  1.91E-07,  avg # of iterations =  5.3

     negative rho (up, down):  2.179E-01 1.881E-01

     total cpu time spent up to now is      957.3 secs

     total energy              =    -602.90526533 Ry
     estimated scf accuracy    <       0.00092278 Ry

     total magnetization       =    14.28 Bohr mag/cell
     absolute magnetization    =    14.44 Bohr mag/cell
[tb_dev] Currently allocated     5.07E+00 Mbytes, locked:    0 /   6
[tb_pin] Currently allocated     0.00E+00 Mbytes, locked:    0 /   0

     iteration # 52     ecut=    60.00 Ry     beta= 0.40
     Davidson diagonalization with overlap

---- Real-time Memory Report at c_bands before calling an iterative solver
          4581 MiB given to the printing process from OS
          -463 MiB allocation reported by mallinfo(arena+hblkhd)
         55500 MiB available memory on the node where the printing process lives
     GPU memory used/free/total (MiB): 6548 / 9732 / 16280
------------------
     ethr =  1.91E-07,  avg # of iterations =  2.6

     negative rho (up, down):  2.279E-01 1.780E-01

     total cpu time spent up to now is      976.8 secs

     total energy              =    -602.89698606 Ry
     estimated scf accuracy    <       0.00126673 Ry

     total magnetization       =    13.86 Bohr mag/cell
     absolute magnetization    =    14.00 Bohr mag/cell
[tb_dev] Currently allocated     5.07E+00 Mbytes, locked:    0 /   6
[tb_pin] Currently allocated     0.00E+00 Mbytes, locked:    0 /   0

     iteration # 53     ecut=    60.00 Ry     beta= 0.40
     Davidson diagonalization with overlap

---- Real-time Memory Report at c_bands before calling an iterative solver
          4587 MiB given to the printing process from OS
          -457 MiB allocation reported by mallinfo(arena+hblkhd)
         55493 MiB available memory on the node where the printing process lives
     GPU memory used/free/total (MiB): 6548 / 9732 / 16280
------------------
     ethr =  1.91E-07,  avg # of iterations =  5.6

     negative rho (up, down):  2.304E-01 1.757E-01

     total cpu time spent up to now is     1002.6 secs

     total energy              =    -602.90226850 Ry
     estimated scf accuracy    <       0.00159359 Ry

     total magnetization       =    15.07 Bohr mag/cell
     absolute magnetization    =    15.28 Bohr mag/cell
[tb_dev] Currently allocated     5.07E+00 Mbytes, locked:    0 /   6
[tb_pin] Currently allocated     0.00E+00 Mbytes, locked:    0 /   0

     iteration # 54     ecut=    60.00 Ry     beta= 0.40
     Davidson diagonalization with overlap

---- Real-time Memory Report at c_bands before calling an iterative solver
          4592 MiB given to the printing process from OS
          -452 MiB allocation reported by mallinfo(arena+hblkhd)
         55493 MiB available memory on the node where the printing process lives
     GPU memory used/free/total (MiB): 6548 / 9732 / 16280
------------------
     ethr =  1.91E-07,  avg # of iterations =  2.3

     negative rho (up, down):  2.353E-01 1.708E-01

     total cpu time spent up to now is     1021.8 secs

     total energy              =    -602.89858815 Ry
     estimated scf accuracy    <       0.00288979 Ry

     total magnetization       =    15.29 Bohr mag/cell
     absolute magnetization    =    15.52 Bohr mag/cell
[tb_dev] Currently allocated     5.07E+00 Mbytes, locked:    0 /   6
[tb_pin] Currently allocated     0.00E+00 Mbytes, locked:    0 /   0

     iteration # 55     ecut=    60.00 Ry     beta= 0.40
     Davidson diagonalization with overlap

---- Real-time Memory Report at c_bands before calling an iterative solver
          4598 MiB given to the printing process from OS
          -446 MiB allocation reported by mallinfo(arena+hblkhd)
         55487 MiB available memory on the node where the printing process lives
     GPU memory used/free/total (MiB): 6548 / 9732 / 16280
------------------
     ethr =  1.91E-07,  avg # of iterations =  5.9

     negative rho (up, down):  2.248E-01 1.812E-01

     total cpu time spent up to now is     1046.4 secs

     total energy              =    -602.90039540 Ry
     estimated scf accuracy    <       0.00585796 Ry

     total magnetization       =    15.66 Bohr mag/cell
     absolute magnetization    =    15.91 Bohr mag/cell
[tb_dev] Currently allocated     5.07E+00 Mbytes, locked:    0 /   6
[tb_pin] Currently allocated     0.00E+00 Mbytes, locked:    0 /   0

     iteration # 56     ecut=    60.00 Ry     beta= 0.40
     Davidson diagonalization with overlap

---- Real-time Memory Report at c_bands before calling an iterative solver
          4604 MiB given to the printing process from OS
          -441 MiB allocation reported by mallinfo(arena+hblkhd)
         55478 MiB available memory on the node where the printing process lives
     GPU memory used/free/total (MiB): 6548 / 9732 / 16280
------------------
     ethr =  1.91E-07,  avg # of iterations =  5.9

     negative rho (up, down):  2.232E-01 1.828E-01

     total cpu time spent up to now is     1072.6 secs

     total energy              =    -602.90465488 Ry
     estimated scf accuracy    <       0.00092992 Ry

     total magnetization       =    14.72 Bohr mag/cell
     absolute magnetization    =    14.91 Bohr mag/cell
[tb_dev] Currently allocated     5.07E+00 Mbytes, locked:    0 /   6
[tb_pin] Currently allocated     0.00E+00 Mbytes, locked:    0 /   0

     iteration # 57     ecut=    60.00 Ry     beta= 0.40
     Davidson diagonalization with overlap

---- Real-time Memory Report at c_bands before calling an iterative solver
          4609 MiB given to the printing process from OS
          -435 MiB allocation reported by mallinfo(arena+hblkhd)
         55476 MiB available memory on the node where the printing process lives
     GPU memory used/free/total (MiB): 6548 / 9732 / 16280
------------------
     ethr =  1.91E-07,  avg # of iterations =  2.2

     negative rho (up, down):  2.302E-01 1.759E-01

     total cpu time spent up to now is     1090.5 secs

     total energy              =    -602.90010198 Ry
     estimated scf accuracy    <       0.00078206 Ry

     total magnetization       =    14.54 Bohr mag/cell
     absolute magnetization    =    14.72 Bohr mag/cell
[tb_dev] Currently allocated     5.07E+00 Mbytes, locked:    0 /   6
[tb_pin] Currently allocated     0.00E+00 Mbytes, locked:    0 /   0

     iteration # 58     ecut=    60.00 Ry     beta= 0.40
     Davidson diagonalization with overlap

---- Real-time Memory Report at c_bands before calling an iterative solver
          4619 MiB given to the printing process from OS
          -430 MiB allocation reported by mallinfo(arena+hblkhd)
         55466 MiB available memory on the node where the printing process lives
     GPU memory used/free/total (MiB): 6548 / 9732 / 16280
------------------
     ethr =  1.91E-07,  avg # of iterations =  4.3

     negative rho (up, down):  2.275E-01 1.786E-01

     total cpu time spent up to now is     1113.3 secs

     total energy              =    -602.90338562 Ry
     estimated scf accuracy    <       0.00228469 Ry

     total magnetization       =    15.28 Bohr mag/cell
     absolute magnetization    =    15.50 Bohr mag/cell
[tb_dev] Currently allocated     5.07E+00 Mbytes, locked:    0 /   6
[tb_pin] Currently allocated     0.00E+00 Mbytes, locked:    0 /   0

     iteration # 59     ecut=    60.00 Ry     beta= 0.40
     Davidson diagonalization with overlap

[...]

     total magnetization       =    11.77 Bohr mag/cell
     absolute magnetization    =    12.74 Bohr mag/cell
[tb_dev] Currently allocated     5.07E+00 Mbytes, locked:    0 /   6
[tb_pin] Currently allocated     0.00E+00 Mbytes, locked:    0 /   0

     iteration # 66     ecut=    60.00 Ry     beta= 0.40
     Davidson diagonalization with overlap

---- Real-time Memory Report at c_bands before calling an iterative solver
          4664 MiB given to the printing process from OS
          -386 MiB allocation reported by mallinfo(arena+hblkhd)
         55423 MiB available memory on the node where the printing process lives
     GPU memory used/free/total (MiB): 6548 / 9732 / 16280
------------------
     ethr =  1.91E-07,  avg # of iterations =  6.2

     negative rho (up, down):  2.213E-01 1.848E-01

     total cpu time spent up to now is     1280.2 secs

     total energy              =    -602.90409001 Ry
     estimated scf accuracy    <       0.00058585 Ry

     total magnetization       =    13.76 Bohr mag/cell
     absolute magnetization    =    13.89 Bohr mag/cell
[tb_dev] Currently allocated     5.07E+00 Mbytes, locked:    0 /   6
[tb_pin] Currently allocated     0.00E+00 Mbytes, locked:    0 /   0

     iteration # 67     ecut=    60.00 Ry     beta= 0.40
     Davidson diagonalization with overlap

---- Real-time Memory Report at c_bands before calling an iterative solver
          4669 MiB given to the printing process from OS
          -380 MiB allocation reported by mallinfo(arena+hblkhd)
         55416 MiB available memory on the node where the printing process lives
     GPU memory used/free/total (MiB): 6548 / 9732 / 16280
------------------
     ethr =  1.91E-07,  avg # of iterations =  3.9

     negative rho (up, down):  2.261E-01 1.801E-01

     total cpu time spent up to now is     1301.8 secs

     total energy              =    -602.90269202 Ry
     estimated scf accuracy    <       0.00047470 Ry

     total magnetization       =    14.30 Bohr mag/cell
     absolute magnetization    =    14.46 Bohr mag/cell
[tb_dev] Currently allocated     5.07E+00 Mbytes, locked:    0 /   6
[tb_pin] Currently allocated     0.00E+00 Mbytes, locked:    0 /   0

     iteration # 68     ecut=    60.00 Ry     beta= 0.40
     Davidson diagonalization with overlap

---- Real-time Memory Report at c_bands before calling an iterative solver
          4683 MiB given to the printing process from OS
          -374 MiB allocation reported by mallinfo(arena+hblkhd)
         55387 MiB available memory on the node where the printing process lives
     GPU memory used/free/total (MiB): 6548 / 9732 / 16280
------------------
     ethr =  1.91E-07,  avg # of iterations =  5.0

     negative rho (up, down):  2.318E-01 1.745E-01

     total cpu time spent up to now is     1325.0 secs

     total energy              =    -602.90038363 Ry
     estimated scf accuracy    <       0.00124813 Ry

     total magnetization       =    14.87 Bohr mag/cell
     absolute magnetization    =    15.06 Bohr mag/cell
[tb_dev] Currently allocated     5.07E+00 Mbytes, locked:    0 /   6
[tb_pin] Currently allocated     0.00E+00 Mbytes, locked:    0 /   0

     iteration # 69     ecut=    60.00 Ry     beta= 0.40
     Davidson diagonalization with overlap

---- Real-time Memory Report at c_bands before calling an iterative solver
          4689 MiB given to the printing process from OS
          -369 MiB allocation reported by mallinfo(arena+hblkhd)
         55395 MiB available memory on the node where the printing process lives
     GPU memory used/free/total (MiB): 6548 / 9732 / 16280
------------------
     ethr =  1.91E-07,  avg # of iterations =  4.9

     negative rho (up, down):  2.284E-01 1.777E-01

     total cpu time spent up to now is     1348.3 secs

     total energy              =    -602.90295351 Ry
     estimated scf accuracy    <       0.00336726 Ry

     total magnetization       =    15.41 Bohr mag/cell
     absolute magnetization    =    15.65 Bohr mag/cell
[tb_dev] Currently allocated     5.07E+00 Mbytes, locked:    0 /   6
[tb_pin] Currently allocated     0.00E+00 Mbytes, locked:    0 /   0

     iteration # 70     ecut=    60.00 Ry     beta= 0.40
     Davidson diagonalization with overlap

---- Real-time Memory Report at c_bands before calling an iterative solver
          4690 MiB given to the printing process from OS
          -363 MiB allocation reported by mallinfo(arena+hblkhd)
         55389 MiB available memory on the node where the printing process lives
     GPU memory used/free/total (MiB): 6548 / 9732 / 16280
------------------
     ethr =  1.91E-07,  avg # of iterations =  2.6

     negative rho (up, down):  2.273E-01 1.789E-01

     total cpu time spent up to now is     1367.5 secs

     total energy              =    -602.90370707 Ry
     estimated scf accuracy    <       0.00177350 Ry

     total magnetization       =    15.11 Bohr mag/cell
     absolute magnetization    =    15.33 Bohr mag/cell
[tb_dev] Currently allocated     5.07E+00 Mbytes, locked:    0 /   6
[tb_pin] Currently allocated     0.00E+00 Mbytes, locked:    0 /   0

     iteration # 71     ecut=    60.00 Ry     beta= 0.40
     Davidson diagonalization with overlap

---- Real-time Memory Report at c_bands before calling an iterative solver
          4699 MiB given to the printing process from OS
          -358 MiB allocation reported by mallinfo(arena+hblkhd)
         55381 MiB available memory on the node where the printing process lives
     GPU memory used/free/total (MiB): 6548 / 9732 / 16280
------------------
     ethr =  1.91E-07,  avg # of iterations =  2.0

     negative rho (up, down):  2.258E-01 1.803E-01

     total cpu time spent up to now is     1383.9 secs

     total energy              =    -602.90408716 Ry
     estimated scf accuracy    <       0.00139494 Ry

     total magnetization       =    15.00 Bohr mag/cell
     absolute magnetization    =    15.20 Bohr mag/cell
[tb_dev] Currently allocated     5.07E+00 Mbytes, locked:    0 /   6
[tb_pin] Currently allocated     0.00E+00 Mbytes, locked:    0 /   0

     iteration # 72     ecut=    60.00 Ry     beta= 0.40
     Davidson diagonalization with overlap

---- Real-time Memory Report at c_bands before calling an iterative solver
          4701 MiB given to the printing process from OS
          -352 MiB allocation reported by mallinfo(arena+hblkhd)
         55379 MiB available memory on the node where the printing process lives
     GPU memory used/free/total (MiB): 6548 / 9732 / 16280
------------------
     ethr =  1.91E-07,  avg # of iterations =  2.0

     negative rho (up, down):  2.260E-01 1.801E-01

     total cpu time spent up to now is     1400.6 secs

     total energy              =    -602.90413611 Ry
     estimated scf accuracy    <       0.00105816 Ry

     total magnetization       =    14.85 Bohr mag/cell
     absolute magnetization    =    15.04 Bohr mag/cell
[tb_dev] Currently allocated     5.07E+00 Mbytes, locked:    0 /   6
[tb_pin] Currently allocated     0.00E+00 Mbytes, locked:    0 /   0

     iteration # 73     ecut=    60.00 Ry     beta= 0.40
     Davidson diagonalization with overlap

---- Real-time Memory Report at c_bands before calling an iterative solver
          4710 MiB given to the printing process from OS
          -347 MiB allocation reported by mallinfo(arena+hblkhd)
         55374 MiB available memory on the node where the printing process lives
     GPU memory used/free/total (MiB): 6548 / 9732 / 16280
------------------
     ethr =  1.91E-07,  avg # of iterations =  1.0

     negative rho (up, down):  2.267E-01 1.795E-01

     total cpu time spent up to now is     1415.7 secs

     total energy              =    -602.90394073 Ry
     estimated scf accuracy    <       0.00110885 Ry

     total magnetization       =    14.87 Bohr mag/cell
     absolute magnetization    =    15.07 Bohr mag/cell
[tb_dev] Currently allocated     5.07E+00 Mbytes, locked:    0 /   6
[tb_pin] Currently allocated     0.00E+00 Mbytes, locked:    0 /   0

     iteration # 74     ecut=    60.00 Ry     beta= 0.40
     Davidson diagonalization with overlap

---- Real-time Memory Report at c_bands before calling an iterative solver
          4712 MiB given to the printing process from OS
          -341 MiB allocation reported by mallinfo(arena+hblkhd)
         55371 MiB available memory on the node where the printing process lives
     GPU memory used/free/total (MiB): 6548 / 9732 / 16280
------------------
     ethr =  1.91E-07,  avg # of iterations =  1.0

     negative rho (up, down):  2.135E-01 1.926E-01

     total cpu time spent up to now is     1430.8 secs

     total energy              =    -602.89651775 Ry
     estimated scf accuracy    <       0.00129522 Ry

     total magnetization       =    14.94 Bohr mag/cell
     absolute magnetization    =    15.14 Bohr mag/cell
[tb_dev] Currently allocated     5.07E+00 Mbytes, locked:    0 /   6
[tb_pin] Currently allocated     0.00E+00 Mbytes, locked:    0 /   0

     iteration # 75     ecut=    60.00 Ry     beta= 0.40
     Davidson diagonalization with overlap

---- Real-time Memory Report at c_bands before calling an iterative solver
          4722 MiB given to the printing process from OS
          -336 MiB allocation reported by mallinfo(arena+hblkhd)
         55361 MiB available memory on the node where the printing process lives
     GPU memory used/free/total (MiB): 6548 / 9732 / 16280
------------------
     ethr =  1.91E-07,  avg # of iterations =  6.5

     negative rho (up, down):  2.118E-01 1.944E-01

     total cpu time spent up to now is     1459.7 secs

     total energy              =    -602.90771328 Ry
     estimated scf accuracy    <       0.00134224 Ry

     total magnetization       =    13.17 Bohr mag/cell
     absolute magnetization    =    13.28 Bohr mag/cell
[tb_dev] Currently allocated     5.07E+00 Mbytes, locked:    0 /   6
[tb_pin] Currently allocated     0.00E+00 Mbytes, locked:    0 /   0

     iteration # 76     ecut=    60.00 Ry     beta= 0.40
     Davidson diagonalization with overlap

---- Real-time Memory Report at c_bands before calling an iterative solver
          4727 MiB given to the printing process from OS
          -330 MiB allocation reported by mallinfo(arena+hblkhd)
         55363 MiB available memory on the node where the printing process lives
     GPU memory used/free/total (MiB): 6548 / 9732 / 16280
------------------
     ethr =  1.91E-07,  avg # of iterations =  2.0

     negative rho (up, down):  2.049E-01 2.016E-01

     total cpu time spent up to now is     1476.6 secs

     total energy              =    -602.90791130 Ry
     estimated scf accuracy    <       0.00199573 Ry

     total magnetization       =    12.91 Bohr mag/cell
     absolute magnetization    =    13.01 Bohr mag/cell
[tb_dev] Currently allocated     5.07E+00 Mbytes, locked:    0 /   6
[tb_pin] Currently allocated     0.00E+00 Mbytes, locked:    0 /   0

     iteration # 77     ecut=    60.00 Ry     beta= 0.40
     Davidson diagonalization with overlap

---- Real-time Memory Report at c_bands before calling an iterative solver
          4729 MiB given to the printing process from OS
          -325 MiB allocation reported by mallinfo(arena+hblkhd)
         55359 MiB available memory on the node where the printing process lives
     GPU memory used/free/total (MiB): 6548 / 9732 / 16280
------------------
     c_bands:  1 eigenvalues not converged
     ethr =  1.91E-07,  avg # of iterations =  5.8

     negative rho (up, down):  2.125E-01 1.937E-01

     total cpu time spent up to now is     1502.2 secs

     total energy              =    -602.90210823 Ry
     estimated scf accuracy    <       0.00993490 Ry

     total magnetization       =    11.81 Bohr mag/cell
     absolute magnetization    =    12.71 Bohr mag/cell
[tb_dev] Currently allocated     5.07E+00 Mbytes, locked:    0 /   6
[tb_pin] Currently allocated     0.00E+00 Mbytes, locked:    0 /   0

     iteration # 78     ecut=    60.00 Ry     beta= 0.40
     Davidson diagonalization with overlap

---- Real-time Memory Report at c_bands before calling an iterative solver
          4743 MiB given to the printing process from OS
          -304 MiB allocation reported by mallinfo(arena+hblkhd)
         55341 MiB available memory on the node where the printing process lives
     GPU memory used/free/total (MiB): 6548 / 9732 / 16280
------------------
     ethr =  1.91E-07,  avg # of iterations =  4.9

     negative rho (up, down):  2.385E-01 1.678E-01

     total cpu time spent up to now is     1526.4 secs

     total energy              =    -602.85220220 Ry
     estimated scf accuracy    <       0.00159069 Ry

     total magnetization       =    13.02 Bohr mag/cell
     absolute magnetization    =    13.13 Bohr mag/cell
[tb_dev] Currently allocated     5.07E+00 Mbytes, locked:    0 /   6
[tb_pin] Currently allocated     0.00E+00 Mbytes, locked:    0 /   0

     iteration # 79     ecut=    60.00 Ry     beta= 0.40
     Davidson diagonalization with overlap

---- Real-time Memory Report at c_bands before calling an iterative solver
          4749 MiB given to the printing process from OS
          -299 MiB allocation reported by mallinfo(arena+hblkhd)
         55334 MiB available memory on the node where the printing process lives
     GPU memory used/free/total (MiB): 6548 / 9732 / 16280
------------------
     ethr =  1.91E-07,  avg # of iterations =  8.8

     negative rho (up, down):  2.376E-01 1.687E-01

     total cpu time spent up to now is     1562.4 secs

     total energy              =    -602.89767713 Ry
     estimated scf accuracy    <       0.00866597 Ry

     total magnetization       =    15.86 Bohr mag/cell
     absolute magnetization    =    16.14 Bohr mag/cell
[tb_dev] Currently allocated     5.07E+00 Mbytes, locked:    0 /   6
[tb_pin] Currently allocated     0.00E+00 Mbytes, locked:    0 /   0

     iteration # 80     ecut=    60.00 Ry     beta= 0.40
     Davidson diagonalization with overlap

---- Real-time Memory Report at c_bands before calling an iterative solver
          4755 MiB given to the printing process from OS
          -293 MiB allocation reported by mallinfo(arena+hblkhd)
         55334 MiB available memory on the node where the printing process lives
     GPU memory used/free/total (MiB): 6548 / 9732 / 16280
------------------
     ethr =  1.91E-07,  avg # of iterations =  1.6

     negative rho (up, down):  2.277E-01 1.785E-01

     total cpu time spent up to now is     1577.9 secs

     total energy              =    -602.90056082 Ry
     estimated scf accuracy    <       0.00770640 Ry

     total magnetization       =    15.81 Bohr mag/cell
     absolute magnetization    =    16.09 Bohr mag/cell

     End of self-consistent calculation

     convergence NOT achieved after  80 iterations: stopping

     Writing config to output data dir ./out/aiida.save/
 
     init_run     :     33.89s CPU     14.94s WALL (       1 calls)
     electrons    :   2040.86s CPU   1562.31s WALL (       1 calls)

     Called by init_run:
     wfcinit      :      8.75s CPU     10.39s WALL (       1 calls)
                                       10.39s GPU  (       1 calls)
     wfcinit:atom :      0.06s CPU      0.17s WALL (     130 calls)
                                        0.16s GPU  (     130 calls)
     wfcinit:wfcr :      5.52s CPU      6.24s WALL (     130 calls)
                                        6.24s GPU  (     130 calls)
     potinit      :      9.98s CPU      0.93s WALL (       1 calls)
     hinit0       :      8.57s CPU      2.53s WALL (       1 calls)

     Called by electrons:
     c_bands      :   1217.41s CPU   1260.23s WALL (      80 calls)
     sum_band     :    236.55s CPU    246.70s WALL (      80 calls)
     v_of_rho     :    114.84s CPU     10.41s WALL (      81 calls)
     v_h          :     15.00s CPU      1.38s WALL (      81 calls)
     v_xc         :     99.83s CPU      9.03s WALL (      81 calls)
     newd         :    140.05s CPU     13.14s WALL (      81 calls)
                                       13.14s GPU  (      81 calls)
     PAW_pot      :    204.87s CPU     19.11s WALL (      81 calls)
     mix_rho      :     84.14s CPU      8.42s WALL (      80 calls)

     Called by c_bands:
     init_us_2    :     40.35s CPU     51.07s WALL (   20930 calls)
     init_us_2:gp :     39.95s CPU     50.68s WALL (   20930 calls)
     cegterg      :   1063.50s CPU   1100.51s WALL (   10400 calls)

     Called by sum_band:
     sum_band:wei :      0.69s CPU      0.69s WALL (      80 calls)
                                        0.69s GPU  (      80 calls)
     sum_band:loo :    218.67s CPU    228.60s WALL (      80 calls)
                                      228.60s GPU  (      80 calls)
     sum_band:buf :     52.23s CPU     53.49s WALL (   10400 calls)
                                       53.42s GPU  (   10400 calls)
     sum_band:ini :     18.70s CPU     22.70s WALL (   10400 calls)
                                       22.63s GPU  (   10400 calls)
     sum_band:cal :      0.39s CPU     10.73s WALL (   10400 calls)
                                        5.52s GPU  (   10400 calls)
     sum_band:bec :      4.23s CPU      4.50s WALL (   10400 calls)
                                        4.43s GPU  (   10400 calls)
     addusdens    :     12.25s CPU     12.44s WALL (      80 calls)
                                       12.43s GPU  (      80 calls)
     addusd:skk   :      0.07s CPU      0.07s WALL (     320 calls)
                                        0.07s GPU  (     320 calls)

     Called by *egterg:
     cdiaghg      :    195.14s CPU    227.45s WALL (   43336 calls)
                                      227.15s GPU  (   43336 calls)
     cegterg:over :     16.82s CPU     17.45s WALL (   32936 calls)
     cegterg:upda :     23.29s CPU     24.74s WALL (   32936 calls)
     cegterg:last :     14.38s CPU     14.77s WALL (   21253 calls)
     h_psi        :    768.22s CPU    770.51s WALL (   43466 calls)
                                      769.64s GPU  (   43466 calls)
     s_psi        :      9.10s CPU     27.12s WALL (   43466 calls)
                                       25.02s GPU  (   43466 calls)
     g_psi        :      0.24s CPU      2.49s WALL (   32936 calls)
                                        2.28s GPU  (   32936 calls)

     Called by h_psi:
     h_psi:calbec :      1.59s CPU     19.52s WALL (   43466 calls)
                                       19.24s GPU  (   43466 calls)
     vloc_psi     :    711.30s CPU    714.50s WALL (   43466 calls)
                                      714.23s GPU  (   43466 calls)
     add_vuspsi   :     15.07s CPU     31.15s WALL (   43466 calls)
                                       30.87s GPU  (   43466 calls)

     General routines
     calbec       :      1.47s CPU      1.52s WALL (   53866 calls)
     fft          :      6.58s CPU      1.43s WALL (    2023 calls)
                                        1.03s GPU  (    1861 calls)
     ffts         :      0.48s CPU      0.16s WALL (     322 calls)
                                        0.04s GPU  (     160 calls)
     fftw         :      5.72s CPU    623.44s WALL (  286468 calls)
                                      620.30s GPU  (  286468 calls)
     interpolate  :     19.00s CPU      1.66s WALL (     162 calls)
     davcio       :      0.12s CPU      1.65s WALL (     148 calls)
 
     Parallel routines

     PAW routines
     PAW_pot      :    204.87s CPU     19.11s WALL (      81 calls)
     PAW_symme    :      0.05s CPU      0.01s WALL (     161 calls)
 
     PWSCF        :  34m37.98s CPU  26m20.25s WALL

 
   This run was terminated on:  18: 9:28  23Oct2023            

=------------------------------------------------------------------------------=
   JOB DONE.
=------------------------------------------------------------------------------=
