
     Program PWSCF v.7.2 starts on 19Dec2023 at 22:50:59 
        Git branch: develop
        Last git commit: 9055681be6fc8200e6fffe76ed5fda34c2696339
        Last git commit date: Wed Nov 8 16:29:39 2023 +0000
        Last git commit subject: Merge branch 'calbec_fix' into 'develop'

     This program is part of the open-source Quantum ESPRESSO suite
     for quantum simulation of materials; please cite
         "P. Giannozzi et al., J. Phys.:Condens. Matter 21 395502 (2009);
         "P. Giannozzi et al., J. Phys.:Condens. Matter 29 465901 (2017);
         "P. Giannozzi et al., J. Chem. Phys. 152 154105 (2020);
          URL http://www.quantum-espresso.org", 
     in publications or presentations arising from this work. More details at
     http://www.quantum-espresso.org/quote

     Parallel version (MPI), running on    56 processors

     MPI processes distributed on     1 nodes
     491174 MiB available memory on the printing compute node when the environment starts

     Reading input from aiida.in

     Current dimensions of program PWSCF are:
     Max number of different atomic species (ntypx) = 10
     Max number of k-points (npk) =  40000
     Max angular momentum in pseudopotentials (lmaxx) =  4
     Message from routine setup:
     using ibrav=0 with symmetry is DISCOURAGED, use correct ibrav instead

     K-points division:     npool     =       7
     R & G space division:  proc/nbgrp/npool/nimage =       8
     Subspace diagonalization in iterative solution of the eigenvalue problem:
     a serial algorithm will be used


     Parallelization info
     --------------------
     sticks:   dense  smooth     PW     G-vecs:    dense   smooth      PW
     Min         278     138     40                 8683     3042     492
     Max         280     139     43                 8685     3045     494
     Sum        2233    1111    337                69473    24357    3943

     Using Slab Decomposition



     bravais-lattice index     =            0
     lattice parameter (alat)  =      10.0458  a.u.
     unit-cell volume          =     716.8752 (a.u.)^3
     number of atoms/cell      =            2
     number of atomic types    =            2
     number of electrons       =        23.00
     number of Kohn-Sham states=           20
     kinetic-energy cutoff     =      40.0000  Ry
     charge density cutoff     =     320.0000  Ry
     scf convergence threshold =      4.0E-10
     mixing beta               =       0.4000
     number of iterations used =            8  plain     mixing
     Exchange-correlation= PBESOL
                           (   1   4  10   8   0   0   0)

     celldm(1)=  10.045838  celldm(2)=   0.000000  celldm(3)=   0.000000
     celldm(4)=   0.000000  celldm(5)=   0.000000  celldm(6)=   0.000000

     crystal axes: (cart. coord. in units of alat)
               a(1) = (   0.000000   0.707107   0.707107 )  
               a(2) = (   0.707107   0.000000   0.707107 )  
               a(3) = (   0.707107   0.707107   0.000000 )  

     reciprocal axes: (cart. coord. in units 2 pi/alat)
               b(1) = ( -0.707107  0.707107  0.707107 )  
               b(2) = (  0.707107 -0.707107  0.707107 )  
               b(3) = (  0.707107  0.707107 -0.707107 )  


     PseudoPot. # 1 for Ge read from file:
     ./pseudo/ge_pbesol_v1.4.uspp.F.UPF
     MD5 check sum: 7bed0412183f5e553a4d27ec7023354d
     Pseudo is Ultrasoft + core correction, Zval = 14.0
     Generated by new atomic code, or converted to UPF format
     Using radial grid of  873 points,  6 beta functions with: 
                l(1) =   0
                l(2) =   0
                l(3) =   1
                l(4) =   1
                l(5) =   2
                l(6) =   2
     Q(r) pseudized with  8 coefficients,  rinner =    1.400   1.400   1.400
                                                       1.400   1.400

     PseudoPot. # 2 for Rb read from file:
     ./pseudo/Rb_ONCV_PBEsol-1.0.upf
     MD5 check sum: 84df3c5f64297d00eda9a2a6a50301db
     Pseudo is Norm-conserving, Zval =  9.0
     Generated using ONCVPSP code by D. R. Hamann
     Using radial grid of 2280 points,  6 beta functions with: 
                l(1) =   0
                l(2) =   0
                l(3) =   1
                l(4) =   1
                l(5) =   2
                l(6) =   2

     atomic species   valence    mass     pseudopotential
     Ge               14.00    72.64000     Ge( 1.00)
     Rb                9.00    85.46780     Rb( 1.00)

     Starting magnetic structure 
     atomic species   magnetization
     Ge              0.100
     Rb              0.100

     48 Sym. Ops., with inversion, found


                                    s                        frac. trans.

      isym =  1     identity                                     

 cryst.   s( 1) = (     1          0          0      )
                  (     0          1          0      )
                  (     0          0          1      )

 cart.    s( 1) = (  1.0000000 -0.0000000  0.0000000 )
                  ( -0.0000000  1.0000000  0.0000000 )
                  ( -0.0000000  0.0000000  1.0000000 )


      isym =  2     180 deg rotation - cart. axis [0,0,1]        

 cryst.   s( 2) = (     0          1         -1      )
                  (     1          0         -1      )
                  (     0          0         -1      )

 cart.    s( 2) = ( -1.0000000  0.0000000  0.0000000 )
                  (  0.0000000 -1.0000000  0.0000000 )
                  (  0.0000000 -0.0000000  1.0000000 )


      isym =  3     180 deg rotation - cart. axis [0,1,0]        

 cryst.   s( 3) = (     0         -1          1      )
                  (     0         -1          0      )
                  (     1         -1          0      )

 cart.    s( 3) = ( -1.0000000 -0.0000000 -0.0000000 )
                  (  0.0000000  1.0000000 -0.0000000 )
                  (  0.0000000  0.0000000 -1.0000000 )


      isym =  4     180 deg rotation - cart. axis [1,0,0]        

 cryst.   s( 4) = (    -1          0          0      )
                  (    -1          0          1      )
                  (    -1          1          0      )

 cart.    s( 4) = (  1.0000000  0.0000000 -0.0000000 )
                  ( -0.0000000 -1.0000000 -0.0000000 )
                  ( -0.0000000 -0.0000000 -1.0000000 )


      isym =  5     180 deg rotation - cart. axis [1,1,0]        

 cryst.   s( 5) = (    -1          0          1      )
                  (     0         -1          1      )
                  (     0          0          1      )

 cart.    s( 5) = ( -0.0000000  1.0000000 -0.0000000 )
                  (  1.0000000 -0.0000000 -0.0000000 )
                  (  0.0000000 -0.0000000 -1.0000000 )


      isym =  6     180 deg rotation - cart. axis [1,-1,0]       

 cryst.   s( 6) = (     0         -1          0      )
                  (    -1          0          0      )
                  (     0          0         -1      )

 cart.    s( 6) = (  0.0000000 -1.0000000 -0.0000000 )
                  ( -1.0000000  0.0000000 -0.0000000 )
                  ( -0.0000000  0.0000000 -1.0000000 )


      isym =  7      90 deg rotation - cart. axis [0,0,-1]       

 cryst.   s( 7) = (     0          1          0      )
                  (     0          1         -1      )
                  (    -1          1          0      )

 cart.    s( 7) = (  0.0000000  1.0000000  0.0000000 )
                  ( -1.0000000 -0.0000000  0.0000000 )
                  ( -0.0000000 -0.0000000  1.0000000 )


      isym =  8      90 deg rotation - cart. axis [0,0,1]        

 cryst.   s( 8) = (     1          0         -1      )
                  (     1          0          0      )
                  (     1         -1          0      )

 cart.    s( 8) = ( -0.0000000 -1.0000000  0.0000000 )
                  (  1.0000000  0.0000000  0.0000000 )
                  (  0.0000000  0.0000000  1.0000000 )


      isym =  9     180 deg rotation - cart. axis [1,0,1]        

 cryst.   s( 9) = (    -1          1          0      )
                  (     0          1          0      )
                  (     0          1         -1      )

 cart.    s( 9) = (  0.0000000  0.0000000  1.0000000 )
                  (  0.0000000 -1.0000000 -0.0000000 )
                  (  1.0000000 -0.0000000 -0.0000000 )


      isym = 10     180 deg rotation - cart. axis [-1,0,1]       

 cryst.   s(10) = (     0          0         -1      )
                  (     0         -1          0      )
                  (    -1          0          0      )

 cart.    s(10) = ( -0.0000000  0.0000000 -1.0000000 )
                  ( -0.0000000 -1.0000000  0.0000000 )
                  ( -1.0000000 -0.0000000  0.0000000 )


      isym = 11      90 deg rotation - cart. axis [0,1,0]        

 cryst.   s(11) = (     0          0          1      )
                  (    -1          0          1      )
                  (     0         -1          1      )

 cart.    s(11) = ( -0.0000000 -0.0000000  1.0000000 )
                  ( -0.0000000  1.0000000 -0.0000000 )
                  ( -1.0000000  0.0000000 -0.0000000 )


      isym = 12      90 deg rotation - cart. axis [0,-1,0]       

 cryst.   s(12) = (     1         -1          0      )
                  (     1          0         -1      )
                  (     1          0          0      )

 cart.    s(12) = (  0.0000000 -0.0000000 -1.0000000 )
                  (  0.0000000  1.0000000  0.0000000 )
                  (  1.0000000  0.0000000  0.0000000 )


      isym = 13     180 deg rotation - cart. axis [0,1,1]        

 cryst.   s(13) = (     1          0          0      )
                  (     1         -1          0      )
                  (     1          0         -1      )

 cart.    s(13) = ( -1.0000000  0.0000000 -0.0000000 )
                  (  0.0000000  0.0000000  1.0000000 )
                  (  0.0000000  1.0000000  0.0000000 )


      isym = 14     180 deg rotation - cart. axis [0,1,-1]       

 cryst.   s(14) = (    -1          0          0      )
                  (     0          0         -1      )
                  (     0         -1          0      )

 cart.    s(14) = ( -1.0000000 -0.0000000  0.0000000 )
                  (  0.0000000 -0.0000000 -1.0000000 )
                  (  0.0000000 -1.0000000 -0.0000000 )


      isym = 15      90 deg rotation - cart. axis [-1,0,0]       

 cryst.   s(15) = (     0         -1          1      )
                  (     0          0          1      )
                  (    -1          0          1      )

 cart.    s(15) = (  1.0000000 -0.0000000 -0.0000000 )
                  ( -0.0000000 -0.0000000  1.0000000 )
                  ( -0.0000000 -1.0000000  0.0000000 )


      isym = 16      90 deg rotation - cart. axis [1,0,0]        

 cryst.   s(16) = (     0          1         -1      )
                  (    -1          1          0      )
                  (     0          1          0      )

 cart.    s(16) = (  1.0000000  0.0000000  0.0000000 )
                  ( -0.0000000  0.0000000 -1.0000000 )
                  ( -0.0000000  1.0000000 -0.0000000 )


      isym = 17     120 deg rotation - cart. axis [-1,-1,-1]     

 cryst.   s(17) = (     0          0          1      )
                  (     1          0          0      )
                  (     0          1          0      )

 cart.    s(17) = (  0.0000000  1.0000000 -0.0000000 )
                  (  0.0000000 -0.0000000  1.0000000 )
                  (  1.0000000 -0.0000000  0.0000000 )


      isym = 18     120 deg rotation - cart. axis [-1,1,1]       

 cryst.   s(18) = (     1         -1          0      )
                  (     0         -1          1      )
                  (     0         -1          0      )

 cart.    s(18) = ( -0.0000000 -1.0000000 -0.0000000 )
                  ( -0.0000000  0.0000000  1.0000000 )
                  ( -1.0000000  0.0000000  0.0000000 )


      isym = 19     120 deg rotation - cart. axis [1,1,-1]       

 cryst.   s(19) = (    -1          1          0      )
                  (    -1          0          0      )
                  (    -1          0          1      )

 cart.    s(19) = ( -0.0000000  1.0000000  0.0000000 )
                  ( -0.0000000 -0.0000000 -1.0000000 )
                  ( -1.0000000 -0.0000000 -0.0000000 )


      isym = 20     120 deg rotation - cart. axis [1,-1,1]       

 cryst.   s(20) = (     0          0         -1      )
                  (     0          1         -1      )
                  (     1          0         -1      )

 cart.    s(20) = (  0.0000000 -1.0000000  0.0000000 )
                  (  0.0000000  0.0000000 -1.0000000 )
                  (  1.0000000  0.0000000 -0.0000000 )


      isym = 21     120 deg rotation - cart. axis [1,1,1]        

 cryst.   s(21) = (     0          1          0      )
                  (     0          0          1      )
                  (     1          0          0      )

 cart.    s(21) = ( -0.0000000  0.0000000  1.0000000 )
                  (  1.0000000  0.0000000 -0.0000000 )
                  (  0.0000000  1.0000000 -0.0000000 )


      isym = 22     120 deg rotation - cart. axis [-1,1,-1]      

 cryst.   s(22) = (    -1          0          1      )
                  (    -1          1          0      )
                  (    -1          0          0      )

 cart.    s(22) = (  0.0000000 -0.0000000  1.0000000 )
                  ( -1.0000000 -0.0000000 -0.0000000 )
                  ( -0.0000000 -1.0000000 -0.0000000 )


      isym = 23     120 deg rotation - cart. axis [1,-1,-1]      

 cryst.   s(23) = (     1          0         -1      )
                  (     0          0         -1      )
                  (     0          1         -1      )

 cart.    s(23) = (  0.0000000  0.0000000 -1.0000000 )
                  ( -1.0000000  0.0000000  0.0000000 )
                  ( -0.0000000  1.0000000  0.0000000 )


      isym = 24     120 deg rotation - cart. axis [-1,-1,1]      

 cryst.   s(24) = (     0         -1          0      )
                  (     1         -1          0      )
                  (     0         -1          1      )

 cart.    s(24) = ( -0.0000000 -0.0000000 -1.0000000 )
                  (  1.0000000 -0.0000000  0.0000000 )
                  (  0.0000000 -1.0000000  0.0000000 )


      isym = 25     inversion                                    

 cryst.   s(25) = (    -1          0          0      )
                  (     0         -1          0      )
                  (     0          0         -1      )

 cart.    s(25) = ( -1.0000000  0.0000000 -0.0000000 )
                  (  0.0000000 -1.0000000 -0.0000000 )
                  (  0.0000000 -0.0000000 -1.0000000 )


      isym = 26     inv. 180 deg rotation - cart. axis [0,0,1]   

 cryst.   s(26) = (     0         -1          1      )
                  (    -1          0          1      )
                  (     0          0          1      )

 cart.    s(26) = (  1.0000000 -0.0000000 -0.0000000 )
                  ( -0.0000000  1.0000000 -0.0000000 )
                  ( -0.0000000  0.0000000 -1.0000000 )


      isym = 27     inv. 180 deg rotation - cart. axis [0,1,0]   

 cryst.   s(27) = (     0          1         -1      )
                  (     0          1          0      )
                  (    -1          1          0      )

 cart.    s(27) = (  1.0000000  0.0000000  0.0000000 )
                  ( -0.0000000 -1.0000000  0.0000000 )
                  ( -0.0000000 -0.0000000  1.0000000 )


      isym = 28     inv. 180 deg rotation - cart. axis [1,0,0]   

 cryst.   s(28) = (     1          0          0      )
                  (     1          0         -1      )
                  (     1         -1          0      )

 cart.    s(28) = ( -1.0000000 -0.0000000  0.0000000 )
                  (  0.0000000  1.0000000  0.0000000 )
                  (  0.0000000  0.0000000  1.0000000 )


      isym = 29     inv. 180 deg rotation - cart. axis [1,1,0]   

 cryst.   s(29) = (     1          0         -1      )
                  (     0          1         -1      )
                  (     0          0         -1      )

 cart.    s(29) = (  0.0000000 -1.0000000  0.0000000 )
                  ( -1.0000000  0.0000000  0.0000000 )
                  ( -0.0000000  0.0000000  1.0000000 )


      isym = 30     inv. 180 deg rotation - cart. axis [1,-1,0]  

 cryst.   s(30) = (     0          1          0      )
                  (     1          0          0      )
                  (     0          0          1      )

 cart.    s(30) = ( -0.0000000  1.0000000  0.0000000 )
                  (  1.0000000 -0.0000000  0.0000000 )
                  (  0.0000000 -0.0000000  1.0000000 )


      isym = 31     inv.  90 deg rotation - cart. axis [0,0,-1]  

 cryst.   s(31) = (     0         -1          0      )
                  (     0         -1          1      )
                  (     1         -1          0      )

 cart.    s(31) = ( -0.0000000 -1.0000000 -0.0000000 )
                  (  1.0000000  0.0000000 -0.0000000 )
                  (  0.0000000  0.0000000 -1.0000000 )


      isym = 32     inv.  90 deg rotation - cart. axis [0,0,1]   

 cryst.   s(32) = (    -1          0          1      )
                  (    -1          0          0      )
                  (    -1          1          0      )

 cart.    s(32) = (  0.0000000  1.0000000 -0.0000000 )
                  ( -1.0000000 -0.0000000 -0.0000000 )
                  ( -0.0000000 -0.0000000 -1.0000000 )


      isym = 33     inv. 180 deg rotation - cart. axis [1,0,1]   

 cryst.   s(33) = (     1         -1          0      )
                  (     0         -1          0      )
                  (     0         -1          1      )

 cart.    s(33) = ( -0.0000000 -0.0000000 -1.0000000 )
                  ( -0.0000000  1.0000000  0.0000000 )
                  ( -1.0000000  0.0000000  0.0000000 )


      isym = 34     inv. 180 deg rotation - cart. axis [-1,0,1]  

 cryst.   s(34) = (     0          0          1      )
                  (     0          1          0      )
                  (     1          0          0      )

 cart.    s(34) = (  0.0000000 -0.0000000  1.0000000 )
                  (  0.0000000  1.0000000 -0.0000000 )
                  (  1.0000000  0.0000000 -0.0000000 )


      isym = 35     inv.  90 deg rotation - cart. axis [0,1,0]   

 cryst.   s(35) = (     0          0         -1      )
                  (     1          0         -1      )
                  (     0          1         -1      )

 cart.    s(35) = (  0.0000000  0.0000000 -1.0000000 )
                  (  0.0000000 -1.0000000  0.0000000 )
                  (  1.0000000 -0.0000000  0.0000000 )


      isym = 36     inv.  90 deg rotation - cart. axis [0,-1,0]  

 cryst.   s(36) = (    -1          1          0      )
                  (    -1          0          1      )
                  (    -1          0          0      )

 cart.    s(36) = ( -0.0000000  0.0000000  1.0000000 )
                  ( -0.0000000 -1.0000000 -0.0000000 )
                  ( -1.0000000 -0.0000000 -0.0000000 )


      isym = 37     inv. 180 deg rotation - cart. axis [0,1,1]   

 cryst.   s(37) = (    -1          0          0      )
                  (    -1          1          0      )
                  (    -1          0          1      )

 cart.    s(37) = (  1.0000000 -0.0000000  0.0000000 )
                  ( -0.0000000 -0.0000000 -1.0000000 )
                  ( -0.0000000 -1.0000000 -0.0000000 )


      isym = 38     inv. 180 deg rotation - cart. axis [0,1,-1]  

 cryst.   s(38) = (     1          0          0      )
                  (     0          0          1      )
                  (     0          1          0      )

 cart.    s(38) = (  1.0000000  0.0000000 -0.0000000 )
                  ( -0.0000000  0.0000000  1.0000000 )
                  ( -0.0000000  1.0000000  0.0000000 )


      isym = 39     inv.  90 deg rotation - cart. axis [-1,0,0]  

 cryst.   s(39) = (     0          1         -1      )
                  (     0          0         -1      )
                  (     1          0         -1      )

 cart.    s(39) = ( -1.0000000  0.0000000  0.0000000 )
                  (  0.0000000  0.0000000 -1.0000000 )
                  (  0.0000000  1.0000000 -0.0000000 )


      isym = 40     inv.  90 deg rotation - cart. axis [1,0,0]   

 cryst.   s(40) = (     0         -1          1      )
                  (     1         -1          0      )
                  (     0         -1          0      )

 cart.    s(40) = ( -1.0000000 -0.0000000 -0.0000000 )
                  (  0.0000000 -0.0000000  1.0000000 )
                  (  0.0000000 -1.0000000  0.0000000 )


      isym = 41     inv. 120 deg rotation - cart. axis [-1,-1,-1]

 cryst.   s(41) = (     0          0         -1      )
                  (    -1          0          0      )
                  (     0         -1          0      )

 cart.    s(41) = ( -0.0000000 -1.0000000  0.0000000 )
                  ( -0.0000000  0.0000000 -1.0000000 )
                  ( -1.0000000  0.0000000 -0.0000000 )


      isym = 42     inv. 120 deg rotation - cart. axis [-1,1,1]  

 cryst.   s(42) = (    -1          1          0      )
                  (     0          1         -1      )
                  (     0          1          0      )

 cart.    s(42) = (  0.0000000  1.0000000  0.0000000 )
                  (  0.0000000 -0.0000000 -1.0000000 )
                  (  1.0000000 -0.0000000 -0.0000000 )


      isym = 43     inv. 120 deg rotation - cart. axis [1,1,-1]  

 cryst.   s(43) = (     1         -1          0      )
                  (     1          0          0      )
                  (     1          0         -1      )

 cart.    s(43) = (  0.0000000 -1.0000000 -0.0000000 )
                  (  0.0000000  0.0000000  1.0000000 )
                  (  1.0000000  0.0000000  0.0000000 )


      isym = 44     inv. 120 deg rotation - cart. axis [1,-1,1]  

 cryst.   s(44) = (     0          0          1      )
                  (     0         -1          1      )
                  (    -1          0          1      )

 cart.    s(44) = ( -0.0000000  1.0000000 -0.0000000 )
                  ( -0.0000000 -0.0000000  1.0000000 )
                  ( -1.0000000 -0.0000000  0.0000000 )


      isym = 45     inv. 120 deg rotation - cart. axis [1,1,1]   

 cryst.   s(45) = (     0         -1          0      )
                  (     0          0         -1      )
                  (    -1          0          0      )

 cart.    s(45) = (  0.0000000 -0.0000000 -1.0000000 )
                  ( -1.0000000 -0.0000000  0.0000000 )
                  ( -0.0000000 -1.0000000  0.0000000 )


      isym = 46     inv. 120 deg rotation - cart. axis [-1,1,-1] 

 cryst.   s(46) = (     1          0         -1      )
                  (     1         -1          0      )
                  (     1          0          0      )

 cart.    s(46) = ( -0.0000000  0.0000000 -1.0000000 )
                  (  1.0000000  0.0000000  0.0000000 )
                  (  0.0000000  1.0000000  0.0000000 )


      isym = 47     inv. 120 deg rotation - cart. axis [1,-1,-1] 

 cryst.   s(47) = (    -1          0          1      )
                  (     0          0          1      )
                  (     0         -1          1      )

 cart.    s(47) = ( -0.0000000 -0.0000000  1.0000000 )
                  (  1.0000000 -0.0000000 -0.0000000 )
                  (  0.0000000 -1.0000000 -0.0000000 )


      isym = 48     inv. 120 deg rotation - cart. axis [-1,-1,1] 

 cryst.   s(48) = (     0          1          0      )
                  (    -1          1          0      )
                  (     0          1         -1      )

 cart.    s(48) = (  0.0000000  0.0000000  1.0000000 )
                  ( -1.0000000  0.0000000 -0.0000000 )
                  ( -0.0000000  1.0000000 -0.0000000 )


   Cartesian axes

     site n.     atom                  positions (alat units)
         1        Rb     tau(   1) = (   0.7071068   0.0000000   0.0000000  )
         2        Ge     tau(   2) = (   0.0000000   0.0000000   0.0000000  )

   Crystallographic axes

     site n.     atom                  positions (cryst. coord.)
         1        Rb     tau(   1) = ( -0.5000000  0.5000000  0.5000000  )
         2        Ge     tau(   2) = (  0.0000000  0.0000000  0.0000000  )

     number of k points=    47  Marzari-Vanderbilt smearing, width (Ry)=  0.0200
                       cart. coord. in units 2pi/alat
        k(    1) = (   0.0000000   0.0000000   0.0000000), wk =   0.0010000
        k(    2) = (   0.0707107   0.0707107  -0.0707107), wk =   0.0080000
        k(    3) = (   0.1414214   0.1414214  -0.1414214), wk =   0.0080000
        k(    4) = (   0.2121320   0.2121320  -0.2121320), wk =   0.0080000
        k(    5) = (   0.2828427   0.2828427  -0.2828427), wk =   0.0080000
        k(    6) = (  -0.3535534  -0.3535534   0.3535534), wk =   0.0040000
        k(    7) = (   0.1414214  -0.0000000   0.0000000), wk =   0.0060000
        k(    8) = (   0.2121320   0.0707107  -0.0707107), wk =   0.0240000
        k(    9) = (   0.2828427   0.1414214  -0.1414214), wk =   0.0240000
        k(   10) = (   0.3535534   0.2121320  -0.2121320), wk =   0.0240000
        k(   11) = (  -0.2828427  -0.4242641   0.4242641), wk =   0.0240000
        k(   12) = (  -0.2121320  -0.3535534   0.3535534), wk =   0.0240000
        k(   13) = (  -0.1414214  -0.2828427   0.2828427), wk =   0.0240000
        k(   14) = (  -0.0707107  -0.2121320   0.2121320), wk =   0.0240000
        k(   15) = (   0.0000000  -0.1414214   0.1414214), wk =   0.0120000
        k(   16) = (   0.2828427  -0.0000000   0.0000000), wk =   0.0060000
        k(   17) = (   0.3535534   0.0707107  -0.0707107), wk =   0.0240000
        k(   18) = (   0.4242641   0.1414214  -0.1414214), wk =   0.0240000
        k(   19) = (  -0.2121320  -0.4949747   0.4949747), wk =   0.0240000
        k(   20) = (  -0.1414214  -0.4242641   0.4242641), wk =   0.0240000
        k(   21) = (  -0.0707107  -0.3535534   0.3535534), wk =   0.0240000
        k(   22) = (   0.0000000  -0.2828427   0.2828427), wk =   0.0120000
        k(   23) = (   0.4242641   0.0000000  -0.0000000), wk =   0.0060000
        k(   24) = (   0.4949747   0.0707107  -0.0707107), wk =   0.0240000
        k(   25) = (  -0.1414214  -0.5656854   0.5656854), wk =   0.0240000
        k(   26) = (  -0.0707107  -0.4949747   0.4949747), wk =   0.0240000
        k(   27) = (  -0.0000000  -0.4242641   0.4242641), wk =   0.0120000
        k(   28) = (   0.5656854  -0.0000000   0.0000000), wk =   0.0060000
        k(   29) = (  -0.0707107  -0.6363961   0.6363961), wk =   0.0240000
        k(   30) = (   0.0000000  -0.5656854   0.5656854), wk =   0.0120000
        k(   31) = (  -0.7071068   0.0000000   0.0000000), wk =   0.0030000
        k(   32) = (   0.2828427   0.1414214   0.0000000), wk =   0.0240000
        k(   33) = (   0.3535534   0.2121320  -0.0707107), wk =   0.0480000
        k(   34) = (  -0.2828427  -0.4242641   0.5656854), wk =   0.0480000
        k(   35) = (  -0.2121320  -0.3535534   0.4949747), wk =   0.0240000
        k(   36) = (   0.4242641   0.1414214  -0.0000000), wk =   0.0240000
        k(   37) = (  -0.2121320  -0.4949747   0.6363961), wk =   0.0480000
        k(   38) = (  -0.1414214  -0.4242641   0.5656854), wk =   0.0480000
        k(   39) = (  -0.0707107  -0.3535534   0.4949747), wk =   0.0480000
        k(   40) = (   0.0000000  -0.2828427   0.4242641), wk =   0.0240000
        k(   41) = (  -0.1414214  -0.5656854   0.7071068), wk =   0.0240000
        k(   42) = (  -0.0707107  -0.4949747   0.6363961), wk =   0.0480000
        k(   43) = (   0.0000000  -0.4242641   0.5656854), wk =   0.0240000
        k(   44) = (  -0.7071068   0.1414214   0.0000000), wk =   0.0120000
        k(   45) = (  -0.1414214  -0.4242641   0.7071068), wk =   0.0240000
        k(   46) = (  -0.0707107  -0.3535534   0.6363961), wk =   0.0240000
        k(   47) = (  -0.7071068   0.2828427   0.0000000), wk =   0.0120000

                       cryst. coord.
        k(    1) = (   0.0000000   0.0000000   0.0000000), wk =   0.0010000
        k(    2) = (  -0.0000000  -0.0000000   0.1000000), wk =   0.0080000
        k(    3) = (  -0.0000000  -0.0000000   0.2000000), wk =   0.0080000
        k(    4) = (   0.0000000   0.0000000   0.3000000), wk =   0.0080000
        k(    5) = (  -0.0000000  -0.0000000   0.4000000), wk =   0.0080000
        k(    6) = (  -0.0000000  -0.0000000  -0.5000000), wk =   0.0040000
        k(    7) = (   0.0000000   0.1000000   0.1000000), wk =   0.0060000
        k(    8) = (   0.0000000   0.1000000   0.2000000), wk =   0.0240000
        k(    9) = (   0.0000000   0.1000000   0.3000000), wk =   0.0240000
        k(   10) = (  -0.0000000   0.1000000   0.4000000), wk =   0.0240000
        k(   11) = (   0.0000000   0.1000000  -0.5000000), wk =   0.0240000
        k(   12) = (  -0.0000000   0.1000000  -0.4000000), wk =   0.0240000
        k(   13) = (   0.0000000   0.1000000  -0.3000000), wk =   0.0240000
        k(   14) = (  -0.0000000   0.1000000  -0.2000000), wk =   0.0240000
        k(   15) = (  -0.0000000   0.1000000  -0.1000000), wk =   0.0120000
        k(   16) = (   0.0000000   0.2000000   0.2000000), wk =   0.0060000
        k(   17) = (  -0.0000000   0.2000000   0.3000000), wk =   0.0240000
        k(   18) = (   0.0000000   0.2000000   0.4000000), wk =   0.0240000
        k(   19) = (   0.0000000   0.2000000  -0.5000000), wk =   0.0240000
        k(   20) = (   0.0000000   0.2000000  -0.4000000), wk =   0.0240000
        k(   21) = (  -0.0000000   0.2000000  -0.3000000), wk =   0.0240000
        k(   22) = (  -0.0000000   0.2000000  -0.2000000), wk =   0.0120000
        k(   23) = (  -0.0000000   0.3000000   0.3000000), wk =   0.0060000
        k(   24) = (  -0.0000000   0.3000000   0.4000000), wk =   0.0240000
        k(   25) = (  -0.0000000   0.3000000  -0.5000000), wk =   0.0240000
        k(   26) = (   0.0000000   0.3000000  -0.4000000), wk =   0.0240000
        k(   27) = (   0.0000000   0.3000000  -0.3000000), wk =   0.0120000
        k(   28) = (   0.0000000   0.4000000   0.4000000), wk =   0.0060000
        k(   29) = (   0.0000000   0.4000000  -0.5000000), wk =   0.0240000
        k(   30) = (   0.0000000   0.4000000  -0.4000000), wk =   0.0120000
        k(   31) = (   0.0000000  -0.5000000  -0.5000000), wk =   0.0030000
        k(   32) = (   0.1000000   0.2000000   0.3000000), wk =   0.0240000
        k(   33) = (   0.1000000   0.2000000   0.4000000), wk =   0.0480000
        k(   34) = (   0.1000000   0.2000000  -0.5000000), wk =   0.0480000
        k(   35) = (   0.1000000   0.2000000  -0.4000000), wk =   0.0240000
        k(   36) = (   0.1000000   0.3000000   0.4000000), wk =   0.0240000
        k(   37) = (   0.1000000   0.3000000  -0.5000000), wk =   0.0480000
        k(   38) = (   0.1000000   0.3000000  -0.4000000), wk =   0.0480000
        k(   39) = (   0.1000000   0.3000000  -0.3000000), wk =   0.0480000
        k(   40) = (   0.1000000   0.3000000  -0.2000000), wk =   0.0240000
        k(   41) = (   0.1000000   0.4000000  -0.5000000), wk =   0.0240000
        k(   42) = (   0.1000000   0.4000000  -0.4000000), wk =   0.0480000
        k(   43) = (   0.1000000   0.4000000  -0.3000000), wk =   0.0240000
        k(   44) = (   0.1000000  -0.5000000  -0.4000000), wk =   0.0120000
        k(   45) = (   0.2000000   0.4000000  -0.4000000), wk =   0.0240000
        k(   46) = (   0.2000000   0.4000000  -0.3000000), wk =   0.0240000
        k(   47) = (   0.2000000  -0.5000000  -0.3000000), wk =   0.0120000

     Dense  grid:    69473 G-vectors     FFT dimensions: (  60,  60,  60)

     Smooth grid:    24357 G-vectors     FFT dimensions: (  45,  45,  45)

     Dynamical RAM for                 wfc:       0.12 MB

     Dynamical RAM for     wfc (w. buffer):       1.75 MB

     Dynamical RAM for           str. fact:       0.26 MB

     Dynamical RAM for           local pot:       0.00 MB

     Dynamical RAM for          nlocal pot:       0.21 MB

     Dynamical RAM for                qrad:       2.87 MB

     Dynamical RAM for          rho,v,vnew:       2.11 MB

     Dynamical RAM for               rhoin:       0.70 MB

     Dynamical RAM for            rho*nmix:       4.24 MB

     Dynamical RAM for           G-vectors:       0.52 MB

     Dynamical RAM for          h,s,v(r/c):       0.07 MB

     Dynamical RAM for          <psi|beta>:       0.01 MB

     Dynamical RAM for                 phi:       0.47 MB

     Dynamical RAM for                hphi:       0.47 MB

     Dynamical RAM for                sphi:       0.47 MB

     Dynamical RAM for                hpsi:       0.12 MB

     Dynamical RAM for                spsi:       0.12 MB

     Dynamical RAM for                kpsi:       0.12 MB

     Dynamical RAM for               hkpsi:       0.12 MB

     Dynamical RAM for               skpsi:       0.12 MB

     Dynamical RAM for      wfcinit/wfcrot:       0.24 MB

     Dynamical RAM for           addusdens:       3.78 MB

     Dynamical RAM for          addusforce:       3.68 MB

     Dynamical RAM for         addusstress:       3.95 MB

     Estimated static dynamical RAM per process >      10.15 MB

     Estimated max dynamical RAM per process >      18.33 MB

     Estimated total dynamical RAM >     823.14 MB
     Generating pointlists ...
     new r_m :   0.2917 (alat units)  2.9302 (a.u.) for type    1
     new r_m :   0.2917 (alat units)  2.9302 (a.u.) for type    2

     The initial density is read from file :
     ./out/aiida.save/charge-density

     Starting wfcs are   14 randomized atomic wfcs +    6 random wfcs

     total cpu time spent up to now is        1.2 secs

     per-process dynamical memory:    20.4 Mb

     Self-consistent Calculation

     iteration #  1     ecut=    40.00 Ry     beta= 0.40
     ParO style diagonalization

---- Real-time Memory Report at c_bands before calling an iterative solver
            56 MiB given to the printing process from OS
            19 MiB allocation reported by mallinfo(arena+hblkhd)
        489941 MiB available memory on the node where the printing process lives
------------------
     ethr =  1.00E-05,  avg # of iterations = 11.2

     total cpu time spent up to now is        2.6 secs

     total energy              =    -261.96179326 Ry
     estimated scf accuracy    <       0.00030145 Ry

     total magnetization       =     2.07 Bohr mag/cell
     absolute magnetization    =     2.07 Bohr mag/cell

     iteration #  2     ecut=    40.00 Ry     beta= 0.40
     RMM-DIIS diagonalization

---- Real-time Memory Report at c_bands before calling an iterative solver
            63 MiB given to the printing process from OS
            26 MiB allocation reported by mallinfo(arena+hblkhd)
        489742 MiB available memory on the node where the printing process lives
------------------
     ethr =  1.31E-06,  avg # of iterations =  2.6

     total cpu time spent up to now is        3.3 secs

     total energy              =    -261.96226806 Ry
     estimated scf accuracy    <       0.00011987 Ry

     total magnetization       =     2.15 Bohr mag/cell
     absolute magnetization    =     2.15 Bohr mag/cell

     iteration #  3     ecut=    40.00 Ry     beta= 0.40
     RMM-DIIS diagonalization

---- Real-time Memory Report at c_bands before calling an iterative solver
            64 MiB given to the printing process from OS
            26 MiB allocation reported by mallinfo(arena+hblkhd)
        489692 MiB available memory on the node where the printing process lives
------------------
     ethr =  5.21E-07,  avg # of iterations =  2.9

     total cpu time spent up to now is        3.6 secs

     total energy              =    -261.96300068 Ry
     estimated scf accuracy    <       0.00007264 Ry

     total magnetization       =     2.32 Bohr mag/cell
     absolute magnetization    =     2.32 Bohr mag/cell

     iteration #  4     ecut=    40.00 Ry     beta= 0.40
     RMM-DIIS diagonalization

---- Real-time Memory Report at c_bands before calling an iterative solver
            64 MiB given to the printing process from OS
            26 MiB allocation reported by mallinfo(arena+hblkhd)
        489692 MiB available memory on the node where the printing process lives
------------------
     ethr =  3.16E-07,  avg # of iterations =  3.3

     negative rho (up, down):  0.000E+00 7.401E-03

     total cpu time spent up to now is        4.1 secs

     total energy              =    -261.96080139 Ry
     estimated scf accuracy    <       0.00005479 Ry

     total magnetization       =     2.55 Bohr mag/cell
     absolute magnetization    =     2.55 Bohr mag/cell

     iteration #  5     ecut=    40.00 Ry     beta= 0.40
     RMM-DIIS diagonalization

---- Real-time Memory Report at c_bands before calling an iterative solver
            65 MiB given to the printing process from OS
            26 MiB allocation reported by mallinfo(arena+hblkhd)
        489687 MiB available memory on the node where the printing process lives
------------------
     ethr =  2.38E-07,  avg # of iterations =  4.3

     total cpu time spent up to now is        4.6 secs

     total energy              =    -261.96357113 Ry
     estimated scf accuracy    <       0.00055396 Ry

     total magnetization       =     2.90 Bohr mag/cell
     absolute magnetization    =     2.90 Bohr mag/cell

     iteration #  6     ecut=    40.00 Ry     beta= 0.40
     ParO style diagonalization

---- Real-time Memory Report at c_bands before calling an iterative solver
            65 MiB given to the printing process from OS
            26 MiB allocation reported by mallinfo(arena+hblkhd)
        489711 MiB available memory on the node where the printing process lives
------------------
     ethr =  2.38E-07,  avg # of iterations =  6.3

     total cpu time spent up to now is        5.5 secs

     total energy              =    -261.96456869 Ry
     estimated scf accuracy    <       0.00001609 Ry

     total magnetization       =     2.75 Bohr mag/cell
     absolute magnetization    =     2.75 Bohr mag/cell

     iteration #  7     ecut=    40.00 Ry     beta= 0.40
     RMM-DIIS diagonalization

---- Real-time Memory Report at c_bands before calling an iterative solver
            65 MiB given to the printing process from OS
            26 MiB allocation reported by mallinfo(arena+hblkhd)
        489678 MiB available memory on the node where the printing process lives
------------------
     ethr =  7.00E-08,  avg # of iterations =  2.6

     total cpu time spent up to now is        5.9 secs

     total energy              =    -261.96460049 Ry
     estimated scf accuracy    <       0.00001249 Ry

     total magnetization       =     2.77 Bohr mag/cell
     absolute magnetization    =     2.77 Bohr mag/cell

     iteration #  8     ecut=    40.00 Ry     beta= 0.40
     RMM-DIIS diagonalization

---- Real-time Memory Report at c_bands before calling an iterative solver
            65 MiB given to the printing process from OS
            27 MiB allocation reported by mallinfo(arena+hblkhd)
        489685 MiB available memory on the node where the printing process lives
------------------
     ethr =  5.43E-08,  avg # of iterations =  2.6

     total cpu time spent up to now is        6.2 secs

     total energy              =    -261.96460682 Ry
     estimated scf accuracy    <       0.00000164 Ry

     total magnetization       =     2.79 Bohr mag/cell
     absolute magnetization    =     2.79 Bohr mag/cell

     iteration #  9     ecut=    40.00 Ry     beta= 0.40
     RMM-DIIS diagonalization

---- Real-time Memory Report at c_bands before calling an iterative solver
            65 MiB given to the printing process from OS
            27 MiB allocation reported by mallinfo(arena+hblkhd)
        489651 MiB available memory on the node where the printing process lives
------------------
     ethr =  7.15E-09,  avg # of iterations =  2.6

     total cpu time spent up to now is        6.5 secs

     total energy              =    -261.96460372 Ry
     estimated scf accuracy    <       0.00000268 Ry

     total magnetization       =     2.79 Bohr mag/cell
     absolute magnetization    =     2.79 Bohr mag/cell

     iteration # 10     ecut=    40.00 Ry     beta= 0.40
     RMM-DIIS diagonalization

---- Real-time Memory Report at c_bands before calling an iterative solver
            66 MiB given to the printing process from OS
            27 MiB allocation reported by mallinfo(arena+hblkhd)
        489669 MiB available memory on the node where the printing process lives
------------------
     ethr =  7.15E-09,  avg # of iterations =  3.1

     total cpu time spent up to now is        6.9 secs

     total energy              =    -261.96461538 Ry
     estimated scf accuracy    <       0.00000040 Ry

     total magnetization       =     2.81 Bohr mag/cell
     absolute magnetization    =     2.81 Bohr mag/cell

     iteration # 11     ecut=    40.00 Ry     beta= 0.40
     ParO style diagonalization

---- Real-time Memory Report at c_bands before calling an iterative solver
            66 MiB given to the printing process from OS
            27 MiB allocation reported by mallinfo(arena+hblkhd)
        489623 MiB available memory on the node where the printing process lives
------------------
     ethr =  1.72E-09,  avg # of iterations =  6.2

     total cpu time spent up to now is        7.9 secs

     total energy              =    -261.96461967 Ry
     estimated scf accuracy    <       0.00000042 Ry

     total magnetization       =     2.80 Bohr mag/cell
     absolute magnetization    =     2.80 Bohr mag/cell

     iteration # 12     ecut=    40.00 Ry     beta= 0.40
     RMM-DIIS diagonalization

---- Real-time Memory Report at c_bands before calling an iterative solver
            66 MiB given to the printing process from OS
            27 MiB allocation reported by mallinfo(arena+hblkhd)
        489621 MiB available memory on the node where the printing process lives
------------------
     ethr =  1.72E-09,  avg # of iterations =  2.6

     total cpu time spent up to now is        8.2 secs

     total energy              =    -261.96462009 Ry
     estimated scf accuracy    <       0.00000008 Ry

     total magnetization       =     2.80 Bohr mag/cell
     absolute magnetization    =     2.80 Bohr mag/cell

     iteration # 13     ecut=    40.00 Ry     beta= 0.40
     RMM-DIIS diagonalization

---- Real-time Memory Report at c_bands before calling an iterative solver
            66 MiB given to the printing process from OS
            27 MiB allocation reported by mallinfo(arena+hblkhd)
        489629 MiB available memory on the node where the printing process lives
------------------
     ethr =  3.51E-10,  avg # of iterations =  2.6

     total cpu time spent up to now is        8.6 secs

     total energy              =    -261.96462015 Ry
     estimated scf accuracy    <       0.00000003 Ry

     total magnetization       =     2.80 Bohr mag/cell
     absolute magnetization    =     2.80 Bohr mag/cell

     iteration # 14     ecut=    40.00 Ry     beta= 0.40
     RMM-DIIS diagonalization

---- Real-time Memory Report at c_bands before calling an iterative solver
            66 MiB given to the printing process from OS
            27 MiB allocation reported by mallinfo(arena+hblkhd)
        489676 MiB available memory on the node where the printing process lives
------------------
     ethr =  1.11E-10,  avg # of iterations =  2.5

     total cpu time spent up to now is        8.9 secs

     total energy              =    -261.96462017 Ry
     estimated scf accuracy    <       0.00000002 Ry

     total magnetization       =     2.80 Bohr mag/cell
     absolute magnetization    =     2.80 Bohr mag/cell

     iteration # 15     ecut=    40.00 Ry     beta= 0.40
     RMM-DIIS diagonalization

---- Real-time Memory Report at c_bands before calling an iterative solver
            66 MiB given to the printing process from OS
            27 MiB allocation reported by mallinfo(arena+hblkhd)
        489686 MiB available memory on the node where the printing process lives
------------------
     ethr =  9.54E-11,  avg # of iterations =  2.9

     Magnetic moment per site  (integrated on atomic sphere of radius R)
     atom   1 (R=0.292)  charge=  7.9599  magn=  0.1501
     atom   2 (R=0.292)  charge= 13.5216  magn=  1.6822

     total cpu time spent up to now is        9.3 secs

     End of self-consistent calculation

 ------ SPIN UP ------------


          k = 0.0000 0.0000 0.0000 (  3119 PWs)   bands (ev):

   -25.0520 -21.8657 -21.8657 -21.8630 -21.8630 -21.8630  -9.1367  -9.1367
    -9.1367  -5.7280   2.5525   2.5525   2.5525   4.0387   6.1783   6.1783
     6.1783   7.0304   7.0304   8.7354

     occupation numbers 
     1.0000   1.0000   1.0000   1.0000   1.0000   1.0000   1.0000   1.0000
     1.0000   1.0000   0.0464   0.0464   0.0464   0.0000   0.0000   0.0000
     0.0000   0.0000   0.0000   0.0000

          k = 0.0707 0.0707-0.0707 (  3071 PWs)   bands (ev):

   -25.0518 -21.8657 -21.8657 -21.8630 -21.8630 -21.8630  -9.1486  -9.1373
    -9.1373  -5.6944   2.2018   2.4858   2.4858   4.4167   6.1436   6.2914
     6.2914   7.1805   7.1805   9.1015

     occupation numbers 
     1.0000   1.0000   1.0000   1.0000   1.0000   1.0000   1.0000   1.0000
     1.0000   1.0000   0.7109   0.0983   0.0983   0.0000   0.0000   0.0000
     0.0000   0.0000   0.0000   0.0000

          k = 0.1414 0.1414-0.1414 (  3053 PWs)   bands (ev):

   -25.0512 -21.8657 -21.8657 -21.8630 -21.8630 -21.8630  -9.1791  -9.1388
    -9.1388  -5.6058   1.6110   2.3267   2.3267   4.9867   6.2827   6.6005
     6.6005   7.6027   7.6027  10.0140

     occupation numbers 
     1.0000   1.0000   1.0000   1.0000   1.0000   1.0000   1.0000   1.0000
     1.0000   1.0000   1.0076   0.3753   0.3753   0.0000   0.0000   0.0000
     0.0000   0.0000   0.0000   0.0000

          k = 0.2121 0.2121-0.2121 (  3040 PWs)   bands (ev):

   -25.0505 -21.8657 -21.8657 -21.8630 -21.8630 -21.8630  -9.2154  -9.1406
    -9.1406  -5.4940   1.0952   2.1541   2.1541   5.2824   6.8637   7.0609
     7.0609   8.1854   8.1854   9.6317

     occupation numbers 
     1.0000   1.0000   1.0000   1.0000   1.0000   1.0000   1.0000   1.0000
     1.0000   1.0000   1.0000   0.8322   0.8322   0.0000   0.0000   0.0000
     0.0000   0.0000   0.0000   0.0000

          k = 0.2828 0.2828-0.2828 (  3064 PWs)   bands (ev):

   -25.0500 -21.8657 -21.8657 -21.8630 -21.8629 -21.8629  -9.2438  -9.1421
    -9.1421  -5.4012   0.7522   2.0289   2.0289   5.4288   7.4673   7.6354
     7.6354   8.5891   8.5891   9.1899

     occupation numbers 
     1.0000   1.0000   1.0000   1.0000   1.0000   1.0000   1.0000   1.0000
     1.0000   1.0000   1.0000   1.0426   1.0426   0.0000   0.0000   0.0000
     0.0000   0.0000   0.0000   0.0000

          k =-0.3536-0.3536 0.3536 (  3040 PWs)   bands (ev):

   -25.0498 -21.8657 -21.8657 -21.8630 -21.8629 -21.8629  -9.2544  -9.1426
    -9.1426  -5.3652   0.6320   1.9839   1.9839   5.4917   7.6228   8.1539
     8.1539   8.3731   8.3731   9.2530

     occupation numbers 
     1.0000   1.0000   1.0000   1.0000   1.0000   1.0000   1.0000   1.0000
     1.0000   1.0000   1.0000   1.0728   1.0728   0.0000   0.0000   0.0000
     0.0000   0.0000   0.0000   0.0000

          k = 0.1414-0.0000 0.0000 (  3063 PWs)   bands (ev):

   -25.0517 -21.8657 -21.8657 -21.8630 -21.8630 -21.8630  -9.1483  -9.1394
    -9.1394  -5.6852   2.1067   2.4819   2.4819   4.4957   5.9094   6.4453
     6.4453   7.1005   7.3531   9.1995

     occupation numbers 
     1.0000   1.0000   1.0000   1.0000   1.0000   1.0000   1.0000   1.0000
     1.0000   1.0000   0.9333   0.1023   0.1023   0.0000   0.0000   0.0000
     0.0000   0.0000   0.0000   0.0000

          k = 0.2121 0.0707-0.0707 (  3061 PWs)   bands (ev):

   -25.0513 -21.8657 -21.8657 -21.8630 -21.8630 -21.8630  -9.1701  -9.1422
    -9.1403  -5.6201   1.6867   2.3441   2.3711   4.9628   5.8058   6.7522
     6.7756   7.3320   7.7620   9.8912

     occupation numbers 
     1.0000   1.0000   1.0000   1.0000   1.0000   1.0000   1.0000   1.0000
     1.0000   1.0000   1.0186   0.3340   0.2746   0.0000   0.0000   0.0000
     0.0000   0.0000   0.0000   0.0000

          k = 0.2828 0.1414-0.1414 (  3046 PWs)   bands (ev):

   -25.0506 -21.8657 -21.8657 -21.8630 -21.8630 -21.8630  -9.2026  -9.1445
    -9.1419  -5.5228   1.2357   2.1469   2.2130   5.3171   6.1598   7.1746
     7.1993   7.8505   8.2085   9.9119

     occupation numbers 
     1.0000   1.0000   1.0000   1.0000   1.0000   1.0000   1.0000   1.0000
     1.0000   1.0000   1.0000   0.8490   0.6805   0.0000   0.0000   0.0000
     0.0000   0.0000   0.0000   0.0000

          k = 0.3536 0.2121-0.2121 (  3055 PWs)   bands (ev):

   -25.0500 -21.8657 -21.8657 -21.8630 -21.8629 -21.8629  -9.2318  -9.1455
    -9.1447  -5.4293   0.8874   1.9891   2.0723   5.4804   6.8202   7.6917
     7.7132   8.2513   8.4035   9.7731

     occupation numbers 
     1.0000   1.0000   1.0000   1.0000   1.0000   1.0000   1.0000   1.0000
     1.0000   1.0000   1.0000   1.0704   0.9908   0.0000   0.0000   0.0000
     0.0000   0.0000   0.0000   0.0000

          k =-0.2828-0.4243 0.4243 (  3062 PWs)   bands (ev):

   -25.0497 -21.8657 -21.8657 -21.8630 -21.8629 -21.8629  -9.2474  -9.1476
    -9.1448  -5.3765   0.7130   1.9149   1.9922   5.6103   7.2043   8.0819
     8.1895   8.2782   8.4444   9.6103

     occupation numbers 
     1.0000   1.0000   1.0000   1.0000   1.0000   1.0000   1.0000   1.0000
     1.0000   1.0000   1.0000   1.0824   1.0689   0.0000   0.0000   0.0000
     0.0000   0.0000   0.0000   0.0000

          k =-0.2121-0.3536 0.3536 (  3054 PWs)   bands (ev):

   -25.0498 -21.8657 -21.8657 -21.8630 -21.8629 -21.8629  -9.2443  -9.1493
    -9.1427  -5.3862   0.7456   1.9366   1.9932   5.6146   7.2501   7.7066
     7.9131   8.3167   8.8122   9.5260

     occupation numbers 
     1.0000   1.0000   1.0000   1.0000   1.0000   1.0000   1.0000   1.0000
     1.0000   1.0000   1.0000   1.0832   1.0684   0.0000   0.0000   0.0000
     0.0000   0.0000   0.0000   0.0000

          k =-0.1414-0.2828 0.2828 (  3057 PWs)   bands (ev):

   -25.0502 -21.8657 -21.8657 -21.8630 -21.8629 -21.8629  -9.2235  -9.1491
    -9.1399  -5.4545   0.9801   2.0481   2.0757   5.5042   6.8111   7.1219
     7.5163   8.1639   8.6485   9.5441

     occupation numbers 
     1.0000   1.0000   1.0000   1.0000   1.0000   1.0000   1.0000   1.0000
     1.0000   1.0000   1.0000   1.0226   0.9857   0.0000   0.0000   0.0000
     0.0000   0.0000   0.0000   0.0000

          k =-0.0707-0.2121 0.2121 (  3037 PWs)   bands (ev):

   -25.0509 -21.8657 -21.8657 -21.8630 -21.8630 -21.8630  -9.1926  -9.1467
    -9.1376  -5.5533   1.3737   2.2195   2.2228   5.2970   6.1832   6.6588
     7.1054   7.7773   8.0678  10.0015

     occupation numbers 
     1.0000   1.0000   1.0000   1.0000   1.0000   1.0000   1.0000   1.0000
     1.0000   1.0000   1.0002   0.6627   0.6536   0.0000   0.0000   0.0000
     0.0000   0.0000   0.0000   0.0000

          k = 0.0000-0.1414 0.1414 (  3054 PWs)   bands (ev):

   -25.0514 -21.8657 -21.8657 -21.8630 -21.8630 -21.8630  -9.1637  -9.1422
    -9.1366  -5.6445   1.8414   2.3790   2.4007   4.8198   6.0274   6.3690
     6.6808   7.3261   7.5265   9.6263

     occupation numbers 
     1.0000   1.0000   1.0000   1.0000   1.0000   1.0000   1.0000   1.0000
     1.0000   1.0000   1.0647   0.2585   0.2173   0.0000   0.0000   0.0000
     0.0000   0.0000   0.0000   0.0000

          k = 0.2828-0.0000 0.0000 (  3050 PWs)   bands (ev):

   -25.0510 -21.8657 -21.8656 -21.8630 -21.8630 -21.8630  -9.1735  -9.1465
    -9.1465  -5.5913   1.5189   2.3309   2.3309   5.1450   5.4187   7.1672
     7.1672   7.2993   8.0672  10.2647

     occupation numbers 
     1.0000   1.0000   1.0000   1.0000   1.0000   1.0000   1.0000   1.0000
     1.0000   1.0000   1.0020   0.3651   0.3651   0.0000   0.0000   0.0000
     0.0000   0.0000   0.0000   0.0000

          k = 0.3536 0.0707-0.0707 (  3057 PWs)   bands (ev):

   -25.0505 -21.8657 -21.8656 -21.8630 -21.8629 -21.8629  -9.1930  -9.1501
    -9.1495  -5.5302   1.2754   2.1729   2.2275   5.2944   5.5911   7.4482
     7.5999   7.7795   8.2401  10.1386

     occupation numbers 
     1.0000   1.0000   1.0000   1.0000   1.0000   1.0000   1.0000   1.0000
     1.0000   1.0000   1.0000   0.7862   0.6408   0.0000   0.0000   0.0000
     0.0000   0.0000   0.0000   0.0000

          k = 0.4243 0.1414-0.1414 (  3060 PWs)   bands (ev):

   -25.0499 -21.8656 -21.8656 -21.8630 -21.8629 -21.8629  -9.2151  -9.1538
    -9.1516  -5.4596   1.0649   1.9443   2.1072   5.3914   6.2615   7.7115
     7.8077   8.2316   8.4171  10.0428

     occupation numbers 
     1.0000   1.0000   1.0000   1.0000   1.0000   1.0000   1.0000   1.0000
     1.0000   1.0000   1.0000   1.0828   0.9323   0.0000   0.0000   0.0000
     0.0000   0.0000   0.0000   0.0000

          k =-0.2121-0.4950 0.4950 (  3066 PWs)   bands (ev):

   -25.0496 -21.8656 -21.8656 -21.8630 -21.8629 -21.8629  -9.2297  -9.1598
    -9.1505  -5.4061   0.9290   1.7778   2.0145   5.6469   6.8608   7.4918
     8.2402   8.3448   8.6293   9.8282

     occupation numbers 
     1.0000   1.0000   1.0000   1.0000   1.0000   1.0000   1.0000   1.0000
     1.0000   1.0000   1.0000   1.0430   1.0547   0.0000   0.0000   0.0000
     0.0000   0.0000   0.0000   0.0000

          k =-0.1414-0.4243 0.4243 (  3067 PWs)   bands (ev):

   -25.0495 -21.8657 -21.8656 -21.8630 -21.8629 -21.8629  -9.2322  -9.1646
    -9.1471  -5.3907   0.8922   1.7352   1.9779   5.9410   6.8109   7.6357
     7.9509   8.2224   8.9148   9.9235

     occupation numbers 
     1.0000   1.0000   1.0000   1.0000   1.0000   1.0000   1.0000   1.0000
     1.0000   1.0000   1.0000   1.0301   1.0752   0.0000   0.0000   0.0000
     0.0000   0.0000   0.0000   0.0000

          k =-0.0707-0.3536 0.3536 (  3068 PWs)   bands (ev):

   -25.0498 -21.8657 -21.8656 -21.8630 -21.8629 -21.8629  -9.2233  -9.1647
    -9.1428  -5.4199   0.9648   1.8240   2.0085   6.0156   6.7038   7.2119
     7.3824   8.3258   9.0949   9.7898

     occupation numbers 
     1.0000   1.0000   1.0000   1.0000   1.0000   1.0000   1.0000   1.0000
     1.0000   1.0000   1.0000   1.0588   1.0591   0.0000   0.0000   0.0000
     0.0000   0.0000   0.0000   0.0000

          k = 0.0000-0.2828 0.2828 (  3060 PWs)   bands (ev):

   -25.0503 -21.8657 -21.8656 -21.8630 -21.8630 -21.8629  -9.2082  -9.1580
    -9.1391  -5.4822   1.1357   2.0146   2.0982   5.8427   6.1638   6.9308
     7.3218   8.1645   8.6449   9.6065

     occupation numbers 
     1.0000   1.0000   1.0000   1.0000   1.0000   1.0000   1.0000   1.0000
     1.0000   1.0000   1.0000   1.0546   0.9488   0.0000   0.0000   0.0000
     0.0000   0.0000   0.0000   0.0000

          k = 0.4243 0.0000-0.0000 (  3078 PWs)   bands (ev):

   -25.0501 -21.8656 -21.8656 -21.8631 -21.8629 -21.8629  -9.1952  -9.1553
    -9.1553  -5.5142   1.2127   2.1909   2.1909   4.9943   5.6385   7.5855
     8.1595   8.1813   8.1813  10.1151

     occupation numbers 
     1.0000   1.0000   1.0000   1.0000   1.0000   1.0000   1.0000   1.0000
     1.0000   1.0000   1.0000   0.7397   0.7397   0.0000   0.0000   0.0000
     0.0000   0.0000   0.0000   0.0000

          k = 0.4950 0.0707-0.0707 (  3060 PWs)   bands (ev):

   -25.0497 -21.8656 -21.8656 -21.8631 -21.8629 -21.8629  -9.2049  -9.1607
    -9.1581  -5.4810   1.1572   2.0288   2.1196   4.9899   5.9434   7.8107
     7.8556   8.6703   8.7405   9.8567

     occupation numbers 
     1.0000   1.0000   1.0000   1.0000   1.0000   1.0000   1.0000   1.0000
     1.0000   1.0000   1.0000   1.0427   0.9082   0.0000   0.0000   0.0000
     0.0000   0.0000   0.0000   0.0000

          k =-0.1414-0.5657 0.5657 (  3063 PWs)   bands (ev):

   -25.0494 -21.8656 -21.8656 -21.8630 -21.8629 -21.8629  -9.2110  -9.1712
    -9.1574  -5.4426   1.1588   1.7406   2.0427   5.2421   6.5043   7.4560
     8.1751   8.6263   8.9043   9.7052

     occupation numbers 
     1.0000   1.0000   1.0000   1.0000   1.0000   1.0000   1.0000   1.0000
     1.0000   1.0000   1.0000   1.0316   1.0287   0.0000   0.0000   0.0000
     0.0000   0.0000   0.0000   0.0000

          k =-0.0707-0.4950 0.4950 (  3065 PWs)   bands (ev):

   -25.0493 -21.8656 -21.8656 -21.8630 -21.8629 -21.8629  -9.2114  -9.1825
    -9.1536  -5.4130   1.1714   1.5250   1.9887   5.6596   7.0547   7.2089
     8.0557   8.3428   8.7138  10.0027

     occupation numbers 
     1.0000   1.0000   1.0000   1.0000   1.0000   1.0000   1.0000   1.0000
     1.0000   1.0000   1.0000   1.0022   1.0706   0.0000   0.0000   0.0000
     0.0000   0.0000   0.0000   0.0000

          k =-0.0000-0.4243 0.4243 (  3064 PWs)   bands (ev):

   -25.0494 -21.8657 -21.8656 -21.8630 -21.8629 -21.8629  -9.2160  -9.1801
    -9.1480  -5.4041   1.0588   1.5977   1.9759   6.1602   6.8222   7.0530
     7.8169   8.1782   9.1149   9.9447

     occupation numbers 
     1.0000   1.0000   1.0000   1.0000   1.0000   1.0000   1.0000   1.0000
     1.0000   1.0000   1.0000   1.0063   1.0759   0.0000   0.0000   0.0000
     0.0000   0.0000   0.0000   0.0000

          k = 0.5657-0.0000 0.0000 (  3062 PWs)   bands (ev):

   -25.0494 -21.8656 -21.8655 -21.8631 -21.8628 -21.8628  -9.2058  -9.1624
    -9.1624  -5.4858   1.1777   2.1038   2.1038   4.7232   5.7915   7.8660
     8.0467   9.1425   9.1425   9.5263

     occupation numbers 
     1.0000   1.0000   1.0000   1.0000   1.0000   1.0000   1.0000   1.0000
     1.0000   1.0000   1.0000   0.9388   0.9388   0.0000   0.0000   0.0000
     0.0000   0.0000   0.0000   0.0000

          k =-0.0707-0.6364 0.6364 (  3061 PWs)   bands (ev):

   -25.0492 -21.8656 -21.8655 -21.8631 -21.8628 -21.8628  -9.2063  -9.1695
    -9.1630  -5.4720   1.2192   1.9350   2.0661   4.8161   5.9368   8.0474
     8.0707   8.7687   9.2150   9.6168

     occupation numbers 
     1.0000   1.0000   1.0000   1.0000   1.0000   1.0000   1.0000   1.0000
     1.0000   1.0000   1.0000   1.0833   0.9996   0.0000   0.0000   0.0000
     0.0000   0.0000   0.0000   0.0000

          k = 0.0000-0.5657 0.5657 (  3076 PWs)   bands (ev):

   -25.0492 -21.8656 -21.8655 -21.8630 -21.8629 -21.8628  -9.2000  -9.1857
    -9.1597  -5.4443   1.3113   1.5891   2.0221   5.1708   6.4275   7.8481
     8.1426   8.3453   8.8413   9.9599

     occupation numbers 
     1.0000   1.0000   1.0000   1.0000   1.0000   1.0000   1.0000   1.0000
     1.0000   1.0000   1.0000   1.0056   1.0486   0.0000   0.0000   0.0000
     0.0000   0.0000   0.0000   0.0000

          k =-0.7071 0.0000 0.0000 (  3026 PWs)   bands (ev):

   -25.0492 -21.8656 -21.8655 -21.8631 -21.8628 -21.8628  -9.2082  -9.1652
    -9.1652  -5.4833   1.2124   2.0753   2.0753   4.6309   5.7214   7.9903
     8.4908   8.7680   9.3710   9.3710

     occupation numbers 
     1.0000   1.0000   1.0000   1.0000   1.0000   1.0000   1.0000   1.0000
     1.0000   1.0000   1.0000   0.9864   0.9864   0.0000   0.0000   0.0000
     0.0000   0.0000   0.0000   0.0000

          k = 0.2828 0.1414 0.0000 (  3054 PWs)   bands (ev):

   -25.0508 -21.8657 -21.8656 -21.8630 -21.8630 -21.8630  -9.1878  -9.1496
    -9.1409  -5.5560   1.3886   2.2280   2.2310   5.3837   5.6851   7.0078
     7.2048   7.6792   8.1553  10.0977

     occupation numbers 
     1.0000   1.0000   1.0000   1.0000   1.0000   1.0000   1.0000   1.0000
     1.0000   1.0000   1.0002   0.6395   0.6312   0.0000   0.0000   0.0000
     0.0000   0.0000   0.0000   0.0000

          k = 0.3536 0.2121-0.0707 (  3055 PWs)   bands (ev):

   -25.0502 -21.8657 -21.8656 -21.8630 -21.8629 -21.8629  -9.2112  -9.1554
    -9.1429  -5.4759   1.1036   2.0188   2.1000   5.6121   6.1426   7.4058
     7.4435   8.2054   8.3880   9.8787

     occupation numbers 
     1.0000   1.0000   1.0000   1.0000   1.0000   1.0000   1.0000   1.0000
     1.0000   1.0000   1.0000   1.0513   0.9456   0.0000   0.0000   0.0000
     0.0000   0.0000   0.0000   0.0000

          k =-0.2828-0.4243 0.5657 (  3057 PWs)   bands (ev):

   -25.0497 -21.8657 -21.8656 -21.8630 -21.8629 -21.8629  -9.2304  -9.1577
    -9.1461  -5.4104   0.9029   1.8581   2.0025   5.7487   6.7772   7.4497
     7.9062   8.3594   8.6878   9.9540

     occupation numbers 
     1.0000   1.0000   1.0000   1.0000   1.0000   1.0000   1.0000   1.0000
     1.0000   1.0000   1.0000   1.0700   1.0630   0.0000   0.0000   0.0000
     0.0000   0.0000   0.0000   0.0000

          k =-0.2121-0.3536 0.4950 (  3074 PWs)   bands (ev):

   -25.0496 -21.8657 -21.8656 -21.8630 -21.8629 -21.8629  -9.2377  -9.1579
    -9.1478  -5.3851   0.8304   1.8006   1.9669   5.8526   6.8402   7.8224
     7.9934   8.5040   8.6458   9.8018

     occupation numbers 
     1.0000   1.0000   1.0000   1.0000   1.0000   1.0000   1.0000   1.0000
     1.0000   1.0000   1.0000   1.0507   1.0788   0.0000   0.0000   0.0000
     0.0000   0.0000   0.0000   0.0000

          k = 0.4243 0.1414-0.0000 (  3062 PWs)   bands (ev):

   -25.0500 -21.8656 -21.8656 -21.8630 -21.8629 -21.8629  -9.2039  -9.1589
    -9.1510  -5.4859   1.1567   2.0672   2.0907   5.3014   5.8990   7.5765
     8.0382   8.0606   8.3959  10.1038

     occupation numbers 
     1.0000   1.0000   1.0000   1.0000   1.0000   1.0000   1.0000   1.0000
     1.0000   1.0000   1.0000   0.9982   0.9618   0.0000   0.0000   0.0000
     0.0000   0.0000   0.0000   0.0000

          k =-0.2121-0.4950 0.6364 (  3052 PWs)   bands (ev):

   -25.0496 -21.8656 -21.8656 -21.8630 -21.8629 -21.8629  -9.2140  -9.1657
    -9.1544  -5.4396   1.0918   1.8348   1.9940   5.5077   6.4559   7.2717
     8.2455   8.4527   8.6635   9.9012

     occupation numbers 
     1.0000   1.0000   1.0000   1.0000   1.0000   1.0000   1.0000   1.0000
     1.0000   1.0000   1.0000   1.0625   1.0679   0.0000   0.0000   0.0000
     0.0000   0.0000   0.0000   0.0000

          k =-0.1414-0.4243 0.5657 (  3070 PWs)   bands (ev):

   -25.0494 -21.8656 -21.8656 -21.8630 -21.8629 -21.8629  -9.2189  -9.1717
    -9.1551  -5.4089   1.0710   1.6575   1.9386   5.8437   6.7733   7.1743
     8.0909   8.6573   8.7981   9.7161

     occupation numbers 
     1.0000   1.0000   1.0000   1.0000   1.0000   1.0000   1.0000   1.0000
     1.0000   1.0000   1.0000   1.0134   1.0832   0.0000   0.0000   0.0000
     0.0000   0.0000   0.0000   0.0000

          k =-0.0707-0.3536 0.4950 (  3066 PWs)   bands (ev):

   -25.0494 -21.8657 -21.8656 -21.8630 -21.8629 -21.8629  -9.2186  -9.1745
    -9.1514  -5.4054   1.0491   1.6567   1.9356   6.1903   6.5187   7.1311
     8.1002   8.3445   8.9370   9.9894

     occupation numbers 
     1.0000   1.0000   1.0000   1.0000   1.0000   1.0000   1.0000   1.0000
     1.0000   1.0000   1.0000   1.0133   1.0833   0.0000   0.0000   0.0000
     0.0000   0.0000   0.0000   0.0000

          k = 0.0000-0.2828 0.4243 (  3057 PWs)   bands (ev):

   -25.0497 -21.8657 -21.8656 -21.8630 -21.8629 -21.8629  -9.2161  -9.1683
    -9.1463  -5.4310   1.0424   1.8192   1.9893   6.0600   6.3161   7.1239
     7.7720   8.3729   8.7798  10.0854

     occupation numbers 
     1.0000   1.0000   1.0000   1.0000   1.0000   1.0000   1.0000   1.0000
     1.0000   1.0000   1.0000   1.0571   1.0703   0.0000   0.0000   0.0000
     0.0000   0.0000   0.0000   0.0000

          k =-0.1414-0.5657 0.7071 (  3062 PWs)   bands (ev):

   -25.0494 -21.8656 -21.8655 -21.8631 -21.8629 -21.8628  -9.2065  -9.1664
    -9.1628  -5.4631   1.1862   1.9654   1.9679   5.0515   6.1172   7.6469
     8.0894   8.7781   9.0719   9.7184

     occupation numbers 
     1.0000   1.0000   1.0000   1.0000   1.0000   1.0000   1.0000   1.0000
     1.0000   1.0000   1.0000   1.0792   1.0785   0.0000   0.0000   0.0000
     0.0000   0.0000   0.0000   0.0000

          k =-0.0707-0.4950 0.6364 (  3073 PWs)   bands (ev):

   -25.0492 -21.8656 -21.8655 -21.8630 -21.8629 -21.8628  -9.2028  -9.1790
    -9.1636  -5.4386   1.2775   1.6573   1.9205   5.3755   6.4946   7.3720
     8.2331   8.4388   9.1418   9.8532

     occupation numbers 
     1.0000   1.0000   1.0000   1.0000   1.0000   1.0000   1.0000   1.0000
     1.0000   1.0000   1.0000   1.0134   1.0829   0.0000   0.0000   0.0000
     0.0000   0.0000   0.0000   0.0000

          k = 0.0000-0.4243 0.5657 (  3073 PWs)   bands (ev):

   -25.0492 -21.8656 -21.8655 -21.8630 -21.8629 -21.8628  -9.2007  -9.1896
    -9.1585  -5.4164   1.3028   1.4586   1.9079   5.8303   6.9338   6.9431
     7.9195   8.7152   8.8247  10.1370

     occupation numbers 
     1.0000   1.0000   1.0000   1.0000   1.0000   1.0000   1.0000   1.0000
     1.0000   1.0000   1.0000   1.0007   1.0816   0.0000   0.0000   0.0000
     0.0000   0.0000   0.0000   0.0000

          k =-0.7071 0.1414 0.0000 (  3062 PWs)   bands (ev):

   -25.0492 -21.8656 -21.8655 -21.8631 -21.8629 -21.8628  -9.2040  -9.1693
    -9.1693  -5.4627   1.2623   1.9022   1.9316   4.9662   6.0499   8.0631
     8.1733   8.3273   9.3836   9.6530

     occupation numbers 
     1.0000   1.0000   1.0000   1.0000   1.0000   1.0000   1.0000   1.0000
     1.0000   1.0000   1.0000   1.0808   1.0833   0.0000   0.0000   0.0000
     0.0000   0.0000   0.0000   0.0000

          k =-0.1414-0.4243 0.7071 (  3072 PWs)   bands (ev):

   -25.0493 -21.8656 -21.8655 -21.8630 -21.8629 -21.8628  -9.2070  -9.1768
    -9.1614  -5.4237   1.2009   1.6952   1.8338   5.8714   6.7039   6.7700
     8.2257   8.6887   8.8881  10.0660

     occupation numbers 
     1.0000   1.0000   1.0000   1.0000   1.0000   1.0000   1.0000   1.0000
     1.0000   1.0000   1.0000   1.0204   1.0621   0.0000   0.0000   0.0000
     0.0000   0.0000   0.0000   0.0000

          k =-0.0707-0.3536 0.6364 (  3070 PWs)   bands (ev):

   -25.0492 -21.8656 -21.8655 -21.8630 -21.8629 -21.8628  -9.2010  -9.1825
    -9.1659  -5.4177   1.3104   1.5595   1.7835   6.2804   6.3367   6.8841
     7.9345   8.9203   9.1592   9.9268

     occupation numbers 
     1.0000   1.0000   1.0000   1.0000   1.0000   1.0000   1.0000   1.0000
     1.0000   1.0000   1.0000   1.0037   1.0449   0.0000   0.0000   0.0000
     0.0000   0.0000   0.0000   0.0000

          k =-0.7071 0.2828 0.0000 (  3066 PWs)   bands (ev):

   -25.0491 -21.8656 -21.8655 -21.8630 -21.8629 -21.8628  -9.1933  -9.1800
    -9.1759  -5.4291   1.4122   1.6538   1.6590   5.8018   6.5833   6.9056
     7.9904   8.7583   9.4047   9.9776

     occupation numbers 
     1.0000   1.0000   1.0000   1.0000   1.0000   1.0000   1.0000   1.0000
     1.0000   1.0000   1.0003   1.0129   1.0137   0.0000   0.0000   0.0000
     0.0000   0.0000   0.0000   0.0000

 ------ SPIN DOWN ----------


          k = 0.0000 0.0000 0.0000 (  3119 PWs)   bands (ev):

   -24.9772 -21.6931 -21.6931 -21.6907 -21.6907 -21.6907  -9.0517  -9.0517
    -9.0517  -4.1033   4.3540   4.3540   4.3540   4.9164   7.0127   7.0127
     7.0127   7.9003   7.9003   9.8031

     occupation numbers 
     1.0000   1.0000   1.0000   1.0000   1.0000   1.0000   1.0000   1.0000
     1.0000   1.0000   0.0000   0.0000   0.0000   0.0000   0.0000   0.0000
     0.0000   0.0000   0.0000   0.0000

          k = 0.0707 0.0707-0.0707 (  3071 PWs)   bands (ev):

   -24.9770 -21.6931 -21.6931 -21.6907 -21.6907 -21.6907  -9.0598  -9.0523
    -9.0523  -4.0719   3.8047   4.2656   4.2656   5.4604   7.0305   7.1246
     7.1246   8.0661   8.0661  10.1318

     occupation numbers 
     1.0000   1.0000   1.0000   1.0000   1.0000   1.0000   1.0000   1.0000
     1.0000   1.0000   0.0000   0.0000   0.0000   0.0000   0.0000   0.0000
     0.0000   0.0000   0.0000   0.0000

          k = 0.1414 0.1414-0.1414 (  3053 PWs)   bands (ev):

   -24.9765 -21.6931 -21.6931 -21.6907 -21.6907 -21.6907  -9.0806  -9.0538
    -9.0538  -3.9879   3.1286   4.0642   4.0642   6.0134   7.2970   7.4241
     7.4241   8.5173   8.5173  10.8592

     occupation numbers 
     1.0000   1.0000   1.0000   1.0000   1.0000   1.0000   1.0000   1.0000
     1.0000   1.0000   0.0000   0.0000   0.0000   0.0000   0.0000   0.0000
     0.0000   0.0000   0.0000   0.0000

          k = 0.2121 0.2121-0.2121 (  3040 PWs)   bands (ev):

   -24.9759 -21.6931 -21.6931 -21.6907 -21.6907 -21.6907  -9.1058  -9.0557
    -9.0557  -3.8805   2.5792   3.8562   3.8562   6.2898   7.8659   7.8659
     7.9241   9.1107   9.1107  10.2239

     occupation numbers 
     1.0000   1.0000   1.0000   1.0000   1.0000   1.0000   1.0000   1.0000
     1.0000   1.0000   0.0333   0.0000   0.0000   0.0000   0.0000   0.0000
     0.0000   0.0000   0.0000   0.0000

          k = 0.2828 0.2828-0.2828 (  3064 PWs)   bands (ev):

   -24.9754 -21.6931 -21.6931 -21.6907 -21.6907 -21.6907  -9.1258  -9.0572
    -9.0572  -3.7904   2.2201   3.7103   3.7103   6.4878   8.3643   8.4091
     8.4091   9.5088   9.5088   9.8570

     occupation numbers 
     1.0000   1.0000   1.0000   1.0000   1.0000   1.0000   1.0000   1.0000
     1.0000   1.0000   0.6612   0.0000   0.0000   0.0000   0.0000   0.0000
     0.0000   0.0000   0.0000   0.0000

          k =-0.3536-0.3536 0.3536 (  3040 PWs)   bands (ev):

   -24.9752 -21.6931 -21.6931 -21.6907 -21.6907 -21.6907  -9.1333  -9.0577
    -9.0577  -3.7550   2.0947   3.6585   3.6585   6.5902   8.3582   8.8165
     8.8165   9.3768   9.3768   9.9882

     occupation numbers 
     1.0000   1.0000   1.0000   1.0000   1.0000   1.0000   1.0000   1.0000
     1.0000   1.0000   0.9549   0.0000   0.0000   0.0000   0.0000   0.0000
     0.0000   0.0000   0.0000   0.0000

          k = 0.1414-0.0000 0.0000 (  3063 PWs)   bands (ev):

   -24.9769 -21.6931 -21.6931 -21.6907 -21.6907 -21.6907  -9.0594  -9.0540
    -9.0540  -4.0629   3.6969   4.2594   4.2594   5.5410   6.7751   7.2885
     7.2885   7.9643   8.2746  10.2245

     occupation numbers 
     1.0000   1.0000   1.0000   1.0000   1.0000   1.0000   1.0000   1.0000
     1.0000   1.0000   0.0000   0.0000   0.0000   0.0000   0.0000   0.0000
     0.0000   0.0000   0.0000   0.0000

          k = 0.2121 0.0707-0.0707 (  3061 PWs)   bands (ev):

   -24.9765 -21.6931 -21.6931 -21.6907 -21.6907 -21.6907  -9.0745  -9.0563
    -9.0549  -4.0006   3.2196   4.0829   4.1193   6.0049   6.7210   7.6069
     7.6107   8.2003   8.7359  10.8364

     occupation numbers 
     1.0000   1.0000   1.0000   1.0000   1.0000   1.0000   1.0000   1.0000
     1.0000   1.0000   0.0000   0.0000   0.0000   0.0000   0.0000   0.0000
     0.0000   0.0000   0.0000   0.0000

          k = 0.2828 0.1414-0.1414 (  3046 PWs)   bands (ev):

   -24.9760 -21.6931 -21.6931 -21.6907 -21.6907 -21.6907  -9.0971  -9.0585
    -9.0566  -3.9065   2.7339   3.8430   3.9278   6.3111   7.1414   8.0210
     8.0488   8.7015   9.1917  10.4958

     occupation numbers 
     1.0000   1.0000   1.0000   1.0000   1.0000   1.0000   1.0000   1.0000
     1.0000   1.0000   0.0034   0.0000   0.0000   0.0000   0.0000   0.0000
     0.0000   0.0000   0.0000   0.0000

          k = 0.3536 0.2121-0.2121 (  3055 PWs)   bands (ev):

   -24.9755 -21.6931 -21.6931 -21.6907 -21.6907 -21.6907  -9.1179  -9.0597
    -9.0592  -3.8152   2.3662   3.6595   3.7629   6.5078   7.7711   8.5252
     8.5305   9.0999   9.1780  10.4657

     occupation numbers 
     1.0000   1.0000   1.0000   1.0000   1.0000   1.0000   1.0000   1.0000
     1.0000   1.0000   0.2849   0.0000   0.0000   0.0000   0.0000   0.0000
     0.0000   0.0000   0.0000   0.0000

          k =-0.2828-0.4243 0.4243 (  3062 PWs)   bands (ev):

   -24.9752 -21.6931 -21.6931 -21.6907 -21.6907 -21.6906  -9.1290  -9.0616
    -9.0594  -3.7633   2.1831   3.5744   3.6710   6.7007   8.0651   8.7251
     8.8677   9.2100   9.3554  10.3688

     occupation numbers 
     1.0000   1.0000   1.0000   1.0000   1.0000   1.0000   1.0000   1.0000
     1.0000   1.0000   0.7600   0.0000   0.0000   0.0000   0.0000   0.0000
     0.0000   0.0000   0.0000   0.0000

          k =-0.2121-0.3536 0.3536 (  3054 PWs)   bands (ev):

   -24.9752 -21.6931 -21.6931 -21.6907 -21.6907 -21.6907  -9.1266  -9.0629
    -9.0578  -3.7731   2.2171   3.5971   3.6723   6.6991   8.1447   8.4295
     8.7850   8.9726   9.8238  10.2209

     occupation numbers 
     1.0000   1.0000   1.0000   1.0000   1.0000   1.0000   1.0000   1.0000
     1.0000   1.0000   0.6692   0.0000   0.0000   0.0000   0.0000   0.0000
     0.0000   0.0000   0.0000   0.0000

          k =-0.1414-0.2828 0.2828 (  3057 PWs)   bands (ev):

   -24.9756 -21.6931 -21.6931 -21.6907 -21.6907 -21.6907  -9.1118  -9.0624
    -9.0554  -3.8405   2.4629   3.7216   3.7676   6.5336   7.8402   7.8910
     8.4516   8.8256   9.6615  10.1950

     occupation numbers 
     1.0000   1.0000   1.0000   1.0000   1.0000   1.0000   1.0000   1.0000
     1.0000   1.0000   0.1237   0.0000   0.0000   0.0000   0.0000   0.0000
     0.0000   0.0000   0.0000   0.0000

          k =-0.0707-0.2121 0.2121 (  3037 PWs)   bands (ev):

   -24.9762 -21.6931 -21.6931 -21.6907 -21.6907 -21.6907  -9.0899  -9.0601
    -9.0532  -3.9368   2.8786   3.9256   3.9369   6.3231   7.1990   7.4578
     7.9687   8.6409   9.0390  10.6383

     occupation numbers 
     1.0000   1.0000   1.0000   1.0000   1.0000   1.0000   1.0000   1.0000
     1.0000   1.0000   0.0002   0.0000   0.0000   0.0000   0.0000   0.0000
     0.0000   0.0000   0.0000   0.0000

          k = 0.0000-0.1414 0.1414 (  3054 PWs)   bands (ev):

   -24.9767 -21.6931 -21.6931 -21.6907 -21.6907 -21.6907  -9.0699  -9.0563
    -9.0520  -4.0244   3.3854   4.1311   4.1487   5.8839   6.9569   7.1878
     7.5299   8.2140   8.4544  10.6037

     occupation numbers 
     1.0000   1.0000   1.0000   1.0000   1.0000   1.0000   1.0000   1.0000
     1.0000   1.0000   0.0000   0.0000   0.0000   0.0000   0.0000   0.0000
     0.0000   0.0000   0.0000   0.0000

          k = 0.2828-0.0000 0.0000 (  3050 PWs)   bands (ev):

   -24.9763 -21.6931 -21.6931 -21.6907 -21.6907 -21.6907  -9.0772  -9.0598
    -9.0598  -3.9706   3.0503   4.0732   4.0732   6.1597   6.3221   7.9863
     7.9863   8.1441   9.1284  11.0740

     occupation numbers 
     1.0000   1.0000   1.0000   1.0000   1.0000   1.0000   1.0000   1.0000
     1.0000   1.0000   0.0000   0.0000   0.0000   0.0000   0.0000   0.0000
     0.0000   0.0000   0.0000   0.0000

          k = 0.3536 0.0707-0.0707 (  3057 PWs)   bands (ev):

   -24.9758 -21.6931 -21.6931 -21.6907 -21.6907 -21.6907  -9.0916  -9.0629
    -9.0625  -3.9089   2.7943   3.8770   3.9517   6.2310   6.5850   8.2800
     8.4054   8.5439   9.2813  10.6672

     occupation numbers 
     1.0000   1.0000   1.0000   1.0000   1.0000   1.0000   1.0000   1.0000
     1.0000   1.0000   0.0012   0.0000   0.0000   0.0000   0.0000   0.0000
     0.0000   0.0000   0.0000   0.0000

          k = 0.4243 0.1414-0.1414 (  3060 PWs)   bands (ev):

   -24.9754 -21.6931 -21.6931 -21.6907 -21.6906 -21.6906  -9.1078  -9.0663
    -9.0644  -3.8379   2.5700   3.6032   3.8115   6.3570   7.2652   8.6642
     8.7670   8.8203   9.0103  10.6760

     occupation numbers 
     1.0000   1.0000   1.0000   1.0000   1.0000   1.0000   1.0000   1.0000
     1.0000   1.0000   0.0374   0.0000   0.0000   0.0000   0.0000   0.0000
     0.0000   0.0000   0.0000   0.0000

          k =-0.2121-0.4950 0.4950 (  3066 PWs)   bands (ev):

   -24.9750 -21.6931 -21.6931 -21.6907 -21.6906 -21.6906  -9.1181  -9.0712
    -9.0638  -3.7847   2.4232   3.4121   3.7042   6.6539   7.8593   8.3980
     8.9861   9.0172   9.2307  10.5084

     occupation numbers 
     1.0000   1.0000   1.0000   1.0000   1.0000   1.0000   1.0000   1.0000
     1.0000   1.0000   0.1793   0.0000   0.0000   0.0000   0.0000   0.0000
     0.0000   0.0000   0.0000   0.0000

          k =-0.1414-0.4243 0.4243 (  3067 PWs)   bands (ev):

   -24.9750 -21.6931 -21.6930 -21.6907 -21.6907 -21.6906  -9.1194  -9.0750
    -9.0613  -3.7707   2.3824   3.3593   3.6615   7.0246   7.7010   8.5985
     8.6086   8.8749   9.8580  10.4993

     occupation numbers 
     1.0000   1.0000   1.0000   1.0000   1.0000   1.0000   1.0000   1.0000
     1.0000   1.0000   0.2518   0.0000   0.0000   0.0000   0.0000   0.0000
     0.0000   0.0000   0.0000   0.0000

          k =-0.0707-0.3536 0.3536 (  3068 PWs)   bands (ev):

   -24.9752 -21.6931 -21.6931 -21.6907 -21.6907 -21.6907  -9.1122  -9.0749
    -9.0578  -3.8020   2.4576   3.4512   3.6950   7.0826   7.7594   8.0967
     8.1102   8.8933  10.2261  10.4223

     occupation numbers 
     1.0000   1.0000   1.0000   1.0000   1.0000   1.0000   1.0000   1.0000
     1.0000   1.0000   0.1303   0.0000   0.0000   0.0000   0.0000   0.0000
     0.0000   0.0000   0.0000   0.0000

          k = 0.0000-0.2828 0.2828 (  3060 PWs)   bands (ev):

   -24.9757 -21.6931 -21.6931 -21.6907 -21.6907 -21.6907  -9.1010  -9.0692
    -9.0547  -3.8658   2.6337   3.6675   3.7966   6.8816   7.2061   7.6944
     8.3094   8.7583   9.6827  10.3088

     occupation numbers 
     1.0000   1.0000   1.0000   1.0000   1.0000   1.0000   1.0000   1.0000
     1.0000   1.0000   0.0160   0.0000   0.0000   0.0000   0.0000   0.0000
     0.0000   0.0000   0.0000   0.0000

          k = 0.4243 0.0000-0.0000 (  3078 PWs)   bands (ev):

   -24.9755 -21.6931 -21.6930 -21.6908 -21.6906 -21.6906  -9.0952  -9.0670
    -9.0670  -3.8873   2.7441   3.9158   3.9158   5.9195   6.5790   8.3982
     8.8479   8.8479   9.2056  10.6972

     occupation numbers 
     1.0000   1.0000   1.0000   1.0000   1.0000   1.0000   1.0000   1.0000
     1.0000   1.0000   0.0029   0.0000   0.0000   0.0000   0.0000   0.0000
     0.0000   0.0000   0.0000   0.0000

          k = 0.4950 0.0707-0.0707 (  3060 PWs)   bands (ev):

   -24.9751 -21.6930 -21.6930 -21.6908 -21.6906 -21.6906  -9.1035  -9.0715
    -9.0694  -3.8500   2.6938   3.7125   3.8360   5.9402   6.8689   8.6197
     8.8363   9.1801   9.2099  10.5901

     occupation numbers 
     1.0000   1.0000   1.0000   1.0000   1.0000   1.0000   1.0000   1.0000
     1.0000   1.0000   0.0065   0.0000   0.0000   0.0000   0.0000   0.0000
     0.0000   0.0000   0.0000   0.0000

          k =-0.1414-0.5657 0.5657 (  3063 PWs)   bands (ev):

   -24.9749 -21.6931 -21.6930 -21.6907 -21.6906 -21.6906  -9.1081  -9.0795
    -9.0692  -3.8108   2.6961   3.3647   3.7467   6.2059   7.4531   8.4095
     9.0083   9.1981   9.2420  10.4196

     occupation numbers 
     1.0000   1.0000   1.0000   1.0000   1.0000   1.0000   1.0000   1.0000
     1.0000   1.0000   0.0063   0.0000   0.0000   0.0000   0.0000   0.0000
     0.0000   0.0000   0.0000   0.0000

          k =-0.0707-0.4950 0.4950 (  3065 PWs)   bands (ev):

   -24.9748 -21.6931 -21.6930 -21.6907 -21.6906 -21.6906  -9.1068  -9.0886
    -9.0663  -3.7840   2.6988   3.1205   3.6820   6.6306   7.9802   8.2316
     8.7894   8.8896   9.5307  10.5698

     occupation numbers 
     1.0000   1.0000   1.0000   1.0000   1.0000   1.0000   1.0000   1.0000
     1.0000   1.0000   0.0060   0.0000   0.0000   0.0000   0.0000   0.0000
     0.0000   0.0000   0.0000   0.0000

          k =-0.0000-0.4243 0.4243 (  3064 PWs)   bands (ev):

   -24.9749 -21.6931 -21.6930 -21.6907 -21.6907 -21.6906  -9.1078  -9.0874
    -9.0620  -3.7804   2.5686   3.1959   3.6630   7.1875   7.8763   7.9087
     8.4534   8.9257  10.0874  10.5147

     occupation numbers 
     1.0000   1.0000   1.0000   1.0000   1.0000   1.0000   1.0000   1.0000
     1.0000   1.0000   0.0381   0.0000   0.0000   0.0000   0.0000   0.0000
     0.0000   0.0000   0.0000   0.0000

          k = 0.5657-0.0000 0.0000 (  3062 PWs)   bands (ev):

   -24.9749 -21.6930 -21.6930 -21.6908 -21.6906 -21.6906  -9.1067  -9.0729
    -9.0729  -3.8477   2.7343   3.8248   3.8248   5.6592   6.6521   8.6402
     8.9353   9.4477   9.4477  10.4010

     occupation numbers 
     1.0000   1.0000   1.0000   1.0000   1.0000   1.0000   1.0000   1.0000
     1.0000   1.0000   0.0034   0.0000   0.0000   0.0000   0.0000   0.0000
     0.0000   0.0000   0.0000   0.0000

          k =-0.0707-0.6364 0.6364 (  3061 PWs)   bands (ev):

   -24.9747 -21.6930 -21.6930 -21.6908 -21.6906 -21.6906  -9.1082  -9.0780
    -9.0735  -3.8316   2.7886   3.6027   3.7825   5.7735   6.8017   8.8172
     8.9076   9.3689   9.4689  10.2465

     occupation numbers 
     1.0000   1.0000   1.0000   1.0000   1.0000   1.0000   1.0000   1.0000
     1.0000   1.0000   0.0013   0.0000   0.0000   0.0000   0.0000   0.0000
     0.0000   0.0000   0.0000   0.0000

          k = 0.0000-0.5657 0.5657 (  3076 PWs)   bands (ev):

   -24.9747 -21.6930 -21.6930 -21.6907 -21.6906 -21.6906  -9.1037  -9.0885
    -9.0710  -3.8074   2.8907   3.1750   3.7276   6.1304   7.3505   8.7961
     8.8501   9.1343   9.2291  10.4526

     occupation numbers 
     1.0000   1.0000   1.0000   1.0000   1.0000   1.0000   1.0000   1.0000
     1.0000   1.0000   0.0002   0.0000   0.0000   0.0000   0.0000   0.0000
     0.0000   0.0000   0.0000   0.0000

          k =-0.7071 0.0000 0.0000 (  3026 PWs)   bands (ev):

   -24.9747 -21.6930 -21.6930 -21.6908 -21.6906 -21.6906  -9.1104  -9.0752
    -9.0752  -3.8395   2.7881   3.7965   3.7965   5.5701   6.5429   8.7446
     9.1196   9.5717   9.5717   9.9601

     occupation numbers 
     1.0000   1.0000   1.0000   1.0000   1.0000   1.0000   1.0000   1.0000
     1.0000   1.0000   0.0013   0.0000   0.0000   0.0000   0.0000   0.0000
     0.0000   0.0000   0.0000   0.0000

          k = 0.2828 0.1414 0.0000 (  3054 PWs)   bands (ev):

   -24.9761 -21.6931 -21.6931 -21.6907 -21.6907 -21.6907  -9.0869  -9.0624
    -9.0557  -3.9376   2.9032   3.9323   3.9515   6.4155   6.6298   7.8325
     8.0636   8.5090   9.1725  10.7092

     occupation numbers 
     1.0000   1.0000   1.0000   1.0000   1.0000   1.0000   1.0000   1.0000
     1.0000   1.0000   0.0001   0.0000   0.0000   0.0000   0.0000   0.0000
     0.0000   0.0000   0.0000   0.0000

          k = 0.3536 0.2121-0.0707 (  3055 PWs)   bands (ev):

   -24.9756 -21.6931 -21.6931 -21.6907 -21.6907 -21.6907  -9.1037  -9.0673
    -9.0577  -3.8580   2.6027   3.6829   3.7968   6.6088   7.1489   8.2025
     8.4152   8.7971   9.3628  10.5502

     occupation numbers 
     1.0000   1.0000   1.0000   1.0000   1.0000   1.0000   1.0000   1.0000
     1.0000   1.0000   0.0245   0.0000   0.0000   0.0000   0.0000   0.0000
     0.0000   0.0000   0.0000   0.0000

          k =-0.2828-0.4243 0.5657 (  3057 PWs)   bands (ev):

   -24.9752 -21.6931 -21.6931 -21.6907 -21.6907 -21.6906  -9.1177  -9.0695
    -9.0604  -3.7923   2.3907   3.5009   3.6859   6.7875   7.7680   8.3270
     8.6743   8.9270   9.5807  10.6829

     occupation numbers 
     1.0000   1.0000   1.0000   1.0000   1.0000   1.0000   1.0000   1.0000
     1.0000   1.0000   0.2357   0.0000   0.0000   0.0000   0.0000   0.0000
     0.0000   0.0000   0.0000   0.0000

          k =-0.2121-0.3536 0.4950 (  3074 PWs)   bands (ev):

   -24.9750 -21.6931 -21.6931 -21.6907 -21.6907 -21.6906  -9.1231  -9.0699
    -9.0617  -3.7668   2.3139   3.4377   3.6457   6.9459   7.7166   8.6694
     8.8130   8.9547   9.6714  10.5552

     occupation numbers 
     1.0000   1.0000   1.0000   1.0000   1.0000   1.0000   1.0000   1.0000
     1.0000   1.0000   0.4071   0.0000   0.0000   0.0000   0.0000   0.0000
     0.0000   0.0000   0.0000   0.0000

          k = 0.4243 0.1414-0.0000 (  3062 PWs)   bands (ev):

   -24.9754 -21.6931 -21.6930 -21.6907 -21.6906 -21.6906  -9.1005  -9.0700
    -9.0639  -3.8615   2.6767   3.7467   3.7912   6.2663   6.8722   8.4974
     8.7340   8.9231   9.0686  10.6888

     occupation numbers 
     1.0000   1.0000   1.0000   1.0000   1.0000   1.0000   1.0000   1.0000
     1.0000   1.0000   0.0085   0.0000   0.0000   0.0000   0.0000   0.0000
     0.0000   0.0000   0.0000   0.0000

          k =-0.2121-0.4950 0.6364 (  3052 PWs)   bands (ev):

   -24.9751 -21.6931 -21.6930 -21.6907 -21.6906 -21.6906  -9.1083  -9.0757
    -9.0666  -3.8132   2.6106   3.4732   3.6778   6.4932   7.4336   8.2339
     9.0123   9.0494   9.2462  10.5832

     occupation numbers 
     1.0000   1.0000   1.0000   1.0000   1.0000   1.0000   1.0000   1.0000
     1.0000   1.0000   0.0220   0.0000   0.0000   0.0000   0.0000   0.0000
     0.0000   0.0000   0.0000   0.0000

          k =-0.1414-0.4243 0.5657 (  3070 PWs)   bands (ev):

   -24.9749 -21.6931 -21.6930 -21.6907 -21.6906 -21.6906  -9.1116  -9.0807
    -9.0672  -3.7823   2.5854   3.2720   3.6157   6.8410   7.7354   8.1276
     8.7875   9.1891   9.5845  10.5202

     occupation numbers 
     1.0000   1.0000   1.0000   1.0000   1.0000   1.0000   1.0000   1.0000
     1.0000   1.0000   0.0308   0.0000   0.0000   0.0000   0.0000   0.0000
     0.0000   0.0000   0.0000   0.0000

          k =-0.0707-0.3536 0.4950 (  3066 PWs)   bands (ev):

   -24.9749 -21.6931 -21.6930 -21.6907 -21.6907 -21.6906  -9.1105  -9.0829
    -9.0645  -3.7809   2.5590   3.2657   3.6127   7.2523   7.4535   8.0312
     8.8223   8.9511   9.8594  10.6713

     occupation numbers 
     1.0000   1.0000   1.0000   1.0000   1.0000   1.0000   1.0000   1.0000
     1.0000   1.0000   0.0429   0.0000   0.0000   0.0000   0.0000   0.0000
     0.0000   0.0000   0.0000   0.0000

          k = 0.0000-0.2828 0.4243 (  3057 PWs)   bands (ev):

   -24.9752 -21.6931 -21.6930 -21.6907 -21.6907 -21.6906  -9.1078  -9.0777
    -9.0605  -3.8099   2.5471   3.4440   3.6732   7.0689   7.3530   8.0498
     8.4933   8.9385   9.7251  10.7269

     occupation numbers 
     1.0000   1.0000   1.0000   1.0000   1.0000   1.0000   1.0000   1.0000
     1.0000   1.0000   0.0495   0.0000   0.0000   0.0000   0.0000   0.0000
     0.0000   0.0000   0.0000   0.0000

          k =-0.1414-0.5657 0.7071 (  3062 PWs)   bands (ev):

   -24.9749 -21.6930 -21.6930 -21.6908 -21.6906 -21.6906  -9.1063  -9.0761
    -9.0727  -3.8281   2.7370   3.6351   3.6491   6.0303   7.0160   8.5850
     8.8770   9.2695   9.4133  10.4523

     occupation numbers 
     1.0000   1.0000   1.0000   1.0000   1.0000   1.0000   1.0000   1.0000
     1.0000   1.0000   0.0032   0.0000   0.0000   0.0000   0.0000   0.0000
     0.0000   0.0000   0.0000   0.0000

          k =-0.0707-0.4950 0.6364 (  3073 PWs)   bands (ev):

   -24.9747 -21.6931 -21.6930 -21.6907 -21.6906 -21.6906  -9.1040  -9.0850
    -9.0734  -3.8035   2.8408   3.2645   3.5920   6.3617   7.4035   8.3211
     8.9182   9.2525   9.4447  10.5082

     occupation numbers 
     1.0000   1.0000   1.0000   1.0000   1.0000   1.0000   1.0000   1.0000
     1.0000   1.0000   0.0005   0.0000   0.0000   0.0000   0.0000   0.0000
     0.0000   0.0000   0.0000   0.0000

          k = 0.0000-0.4243 0.5657 (  3073 PWs)   bands (ev):

   -24.9747 -21.6931 -21.6930 -21.6907 -21.6906 -21.6906  -9.0986  -9.0952
    -9.0697  -3.7854   2.8468   3.0469   3.5808   6.8028   7.8680   7.9164
     8.6773   9.1972   9.7112  10.7010

     occupation numbers 
     1.0000   1.0000   1.0000   1.0000   1.0000   1.0000   1.0000   1.0000
     1.0000   1.0000   0.0004   0.0000   0.0000   0.0000   0.0000   0.0000
     0.0000   0.0000   0.0000   0.0000

          k =-0.7071 0.1414 0.0000 (  3062 PWs)   bands (ev):

   -24.9747 -21.6930 -21.6930 -21.6908 -21.6906 -21.6906  -9.1070  -9.0785
    -9.0769  -3.8223   2.8397   3.5665   3.5990   5.9500   6.9179   8.9262
     8.9532   8.9947   9.5767  10.2947

     occupation numbers 
     1.0000   1.0000   1.0000   1.0000   1.0000   1.0000   1.0000   1.0000
     1.0000   1.0000   0.0005   0.0000   0.0000   0.0000   0.0000   0.0000
     0.0000   0.0000   0.0000   0.0000

          k =-0.1414-0.4243 0.7071 (  3072 PWs)   bands (ev):

   -24.9748 -21.6931 -21.6930 -21.6907 -21.6906 -21.6906  -9.1043  -9.0846
    -9.0714  -3.7935   2.7393   3.3087   3.4887   6.8785   7.5918   7.7708
     8.9166   9.3158   9.5508  10.7266

     occupation numbers 
     1.0000   1.0000   1.0000   1.0000   1.0000   1.0000   1.0000   1.0000
     1.0000   1.0000   0.0031   0.0000   0.0000   0.0000   0.0000   0.0000
     0.0000   0.0000   0.0000   0.0000

          k =-0.0707-0.3536 0.6364 (  3070 PWs)   bands (ev):

   -24.9747 -21.6931 -21.6930 -21.6907 -21.6907 -21.6906  -9.1004  -9.0894
    -9.0744  -3.7860   2.8611   3.1595   3.4268   7.2764   7.2963   7.8132
     8.6833   9.4512   9.8784  10.7942

     occupation numbers 
     1.0000   1.0000   1.0000   1.0000   1.0000   1.0000   1.0000   1.0000
     1.0000   1.0000   0.0003   0.0000   0.0000   0.0000   0.0000   0.0000
     0.0000   0.0000   0.0000   0.0000

          k =-0.7071 0.2828 0.0000 (  3066 PWs)   bands (ev):

   -24.9747 -21.6931 -21.6930 -21.6907 -21.6906 -21.6906  -9.0982  -9.0873
    -9.0798  -3.7941   2.9981   3.2644   3.2676   6.8111   7.4629   7.8735
     8.7425   9.5850   9.6414  10.6948

     occupation numbers 
     1.0000   1.0000   1.0000   1.0000   1.0000   1.0000   1.0000   1.0000
     1.0000   1.0000   0.0000   0.0000   0.0000   0.0000   0.0000   0.0000
     0.0000   0.0000   0.0000   0.0000

     the Fermi energy is     2.3165 ev

!    total energy              =    -261.96462022 Ry
     estimated scf accuracy    <          2.9E-10 Ry
     smearing contrib. (-TS)   =       0.00194987 Ry
     internal energy E=F+TS    =    -261.96657009 Ry

     The total energy is F=E-TS. E is the sum of the following terms:
     one-electron contribution =    -199.10268387 Ry
     hartree contribution      =     110.67619229 Ry
     xc contribution           =     -64.81735582 Ry
     ewald contribution        =    -108.72272268 Ry

     total magnetization       =     2.80 Bohr mag/cell
     absolute magnetization    =     2.80 Bohr mag/cell

     convergence has been achieved in  15 iterations

     Forces acting on atoms (cartesian axes, Ry/au):

     atom    1 type  2   force =    -0.00000000   -0.00000000    0.00000000
     atom    2 type  1   force =    -0.00000000   -0.00000000    0.00000000
     The non-local contrib.  to forces
     atom    1 type  2   force =     0.00000000    0.00000000    0.00000000
     atom    2 type  1   force =    -0.00000000   -0.00000000   -0.00000000
     The ionic contribution  to forces
     atom    1 type  2   force =     0.00000000   -0.00000000    0.00000000
     atom    2 type  1   force =    -0.00000000    0.00000000    0.00000000
     The local contribution  to forces
     atom    1 type  2   force =     0.00000000    0.00000000   -0.00000000
     atom    2 type  1   force =     0.00000000    0.00000000    0.00000000
     The core correction contribution to forces
     atom    1 type  2   force =     0.00000000    0.00000000    0.00000000
     atom    2 type  1   force =     0.00000000    0.00000000   -0.00000000
     The Hubbard contrib.    to forces
     atom    1 type  2   force =     0.00000000    0.00000000    0.00000000
     atom    2 type  1   force =     0.00000000    0.00000000    0.00000000
     The SCF correction term to forces
     atom    1 type  2   force =     0.00000000    0.00000000    0.00000000
     atom    2 type  1   force =     0.00000000   -0.00000000   -0.00000000

     Total force =     0.000000     Total SCF correction =     0.000000


     Computing stress (Cartesian axis) and pressure

          total   stress  (Ry/bohr**3)                   (kbar)     P=       -5.43
  -0.00003694  -0.00000000  -0.00000000           -5.43       -0.00       -0.00
  -0.00000000  -0.00003694  -0.00000000           -0.00       -5.43       -0.00
  -0.00000000  -0.00000000  -0.00003694           -0.00       -0.00       -5.43

     kinetic stress (kbar)   4040.55     -0.00     -0.00
                               -0.00   4040.55      0.00
                               -0.00      0.00   4040.55

     local   stress (kbar)  -2173.40      0.00     -0.00
                                0.00  -2173.40     -0.00
                               -0.00     -0.00  -2173.40

     nonloc. stress (kbar)    532.69     -0.00      0.00
                               -0.00    532.69      0.00
                                0.00     -0.00    532.69

     hartree stress (kbar)   7570.37      0.00      0.00
                                0.00   7570.37      0.00
                                0.00      0.00   7570.37

     exc-cor stress (kbar)   3723.13     -0.00      0.00
                               -0.00   3723.13      0.00
                                0.00      0.00   3723.13

     corecor stress (kbar)  -6262.02      0.00      0.00
                                0.00  -6262.02     -0.00
                                0.00     -0.00  -6262.02

     ewald   stress (kbar)  -7436.75      0.00     -0.00
                                0.00  -7436.75      0.00
                               -0.00      0.00  -7436.75

     hubbard stress (kbar)      0.00      0.00      0.00
                                0.00      0.00      0.00
                                0.00      0.00      0.00

     DFT-D   stress (kbar)      0.00      0.00      0.00
                                0.00      0.00      0.00
                                0.00      0.00      0.00

     XDM     stress (kbar)      0.00      0.00      0.00
                                0.00      0.00      0.00
                                0.00      0.00      0.00

     dft-nl  stress (kbar)      0.00      0.00      0.00
                                0.00      0.00      0.00
                                0.00      0.00      0.00

     TS-vdW  stress (kbar)      0.00      0.00      0.00
                                0.00      0.00      0.00
                                0.00      0.00      0.00

     MDB     stress (kbar)      0.00      0.00      0.00
                                0.00      0.00      0.00
                                0.00      0.00      0.00

     3D-RISM stress (kbar)      0.00      0.00      0.00
                                0.00      0.00      0.00
                                0.00      0.00      0.00


     Writing all to output data dir ./out/aiida.save/ :
     XML data file, charge density, pseudopotentials, collected wavefunctions

     init_run     :      0.84s CPU      0.92s WALL (       1 calls)
     electrons    :      7.40s CPU      8.13s WALL (       1 calls)
     forces       :      0.06s CPU      0.06s WALL (       1 calls)
     stress       :      0.19s CPU      0.20s WALL (       1 calls)

     Called by init_run:
     wfcinit      :      0.12s CPU      0.13s WALL (       1 calls)
     wfcinit:atom :      0.00s CPU      0.00s WALL (      14 calls)
     wfcinit:wfcr :      0.11s CPU      0.12s WALL (      14 calls)
     potinit      :      0.16s CPU      0.22s WALL (       1 calls)
     hinit0       :      0.50s CPU      0.51s WALL (       1 calls)

     Called by electrons:
     c_bands      :      5.82s CPU      6.44s WALL (      15 calls)
     sum_band     :      0.88s CPU      0.94s WALL (      15 calls)
     v_of_rho     :      0.46s CPU      0.48s WALL (      16 calls)
     v_h          :      0.01s CPU      0.01s WALL (      16 calls)
     v_xc         :      0.50s CPU      0.53s WALL (      18 calls)
     newd         :      0.15s CPU      0.16s WALL (      16 calls)
     mix_rho      :      0.04s CPU      0.05s WALL (      15 calls)

     Called by c_bands:
     init_us_2    :      0.06s CPU      0.06s WALL (     462 calls)
     init_us_2:cp :      0.06s CPU      0.06s WALL (     462 calls)
     crmmdiagg    :      1.53s CPU      1.58s WALL (     168 calls)
     wfcrot       :      1.20s CPU      1.26s WALL (     182 calls)

     Called by sum_band:
     sum_band:wei :      0.02s CPU      0.02s WALL (      15 calls)
     sum_band:loo :      0.65s CPU      0.69s WALL (      15 calls)
     sum_band:buf :      0.01s CPU      0.01s WALL (     210 calls)
     sum_band:ini :      0.03s CPU      0.03s WALL (     210 calls)
     sum_band:cal :      0.03s CPU      0.03s WALL (     210 calls)
     sum_band:bec :      0.00s CPU      0.00s WALL (     210 calls)
     addusdens    :      0.12s CPU      0.13s WALL (      15 calls)
                                        0.00s GPU  (      15 calls)
     addusd:skk   :      0.00s CPU      0.00s WALL (      15 calls)
                                        0.00s GPU  (      15 calls)

     Called by *rmmdiagg:
     h_psi        :      4.27s CPU      4.46s WALL (    1531 calls)
     s_psi        :      0.08s CPU      0.09s WALL (    1531 calls)
     g_psi        :      0.01s CPU      0.02s WALL (    7333 calls)

     Called by h_psi:
     h_psi:calbec :      0.12s CPU      0.13s WALL (    1531 calls)
     vloc_psi     :      4.04s CPU      4.23s WALL (    1531 calls)
     add_vuspsi   :      0.09s CPU      0.09s WALL (    1531 calls)

     General routines
     calbec       :      0.15s CPU      0.16s WALL (    1811 calls)
     fft          :      0.64s CPU      0.66s WALL (     438 calls)
     ffts         :      0.13s CPU      0.14s WALL (      62 calls)
     fftw         :      4.05s CPU      4.22s WALL (   32640 calls)
     interpolate  :      0.14s CPU      0.14s WALL (      32 calls)

     Parallel routines

     PWSCF        :      8.66s CPU      9.72s WALL


   This run was terminated on:  22:51: 8  19Dec2023            

=------------------------------------------------------------------------------=
   JOB DONE.
=------------------------------------------------------------------------------=
