
     Program PWSCF v.7.2 starts on 23Oct2023 at 18:10:34 

     This program is part of the open-source Quantum ESPRESSO suite
     for quantum simulation of materials; please cite
         "P. Giannozzi et al., J. Phys.:Condens. Matter 21 395502 (2009);
         "P. Giannozzi et al., J. Phys.:Condens. Matter 29 465901 (2017);
         "P. Giannozzi et al., J. Chem. Phys. 152 154105 (2020);
          URL http://www.quantum-espresso.org", 
     in publications or presentations arising from this work. More details at
     http://www.quantum-espresso.org/quote

     Parallel version (MPI & OpenMP), running on      12 processor cores
     Number of MPI processes:                 1
     Threads/MPI process:                    12

     MPI processes distributed on     1 nodes
     60523 MiB available memory on the printing compute node when the environment starts
 
     Reading input from aiida.in

     Current dimensions of program PWSCF are:
     Max number of different atomic species (ntypx) = 10
     Max number of k-points (npk) =  40000
     Max angular momentum in pseudopotentials (lmaxx) =  4
     file K.pbesol-spn-kjpaw_psl.1.0.0.UPF: wavefunction(s)  3S renormalized
     Message from routine setup:
     using ibrav=0 with symmetry is DISCOURAGED, use correct ibrav instead
 
     Subspace diagonalization in iterative solution of the eigenvalue problem:
     a serial algorithm will be used

 
     G-vector sticks info
     --------------------
     sticks:   dense  smooth     PW     G-vecs:    dense   smooth      PW
     Sum       10147    5079   1377               714511   252665   35549
 
     Using Slab Decomposition
 


     bravais-lattice index     =            0
     lattice parameter (alat)  =      13.5115  a.u.
     unit-cell volume          =    4023.8238 (a.u.)^3
     number of atoms/cell      =            8
     number of atomic types    =            2
     number of electrons       =        88.00
     number of Kohn-Sham states=           53
     kinetic-energy cutoff     =      60.0000  Ry
     charge density cutoff     =     480.0000  Ry
     scf convergence threshold =      1.6E-09
     mixing beta               =       0.2000
     number of iterations used =            8  plain     mixing
     Exchange-correlation= SLA  PW   PSX  PSC
                           (   1   4  10   8   0   0   0)

     GPU acceleration is ACTIVE.


     GPU used by master process:

        Device Number: 0
        Device name: Tesla P100-PCIE-16GB
        Compute capability : 60
        Ratio of single to double precision performance  : 2
        Memory Clock Rate (KHz): 715000
        Memory Bus Width (bits): 4096
        Peak Memory Bandwidth (GB/s): 732.16

     celldm(1)=  13.511542  celldm(2)=   0.000000  celldm(3)=   0.000000
     celldm(4)=   0.000000  celldm(5)=   0.000000  celldm(6)=   0.000000

     crystal axes: (cart. coord. in units of alat)
               a(1) = (   1.000000   0.000000   0.000000 )  
               a(2) = (   0.000000   1.454545   0.000000 )  
               a(3) = (  -0.349951   0.000000   1.121494 )  

     reciprocal axes: (cart. coord. in units 2 pi/alat)
               b(1) = (  1.000000 -0.000000  0.312040 )  
               b(2) = (  0.000000  0.687500 -0.000000 )  
               b(3) = (  0.000000  0.000000  0.891668 )  


     PseudoPot. # 1 for Co read from file:
     ./pseudo/co_pbesol_v1.2.uspp.F.UPF
     MD5 check sum: 3b4cd4e7cc7df4da9fdede0fd33e2193
     Pseudo is Ultrasoft + core correction, Zval = 17.0
     Generated by new atomic code, or converted to UPF format
     Using radial grid of  863 points,  6 beta functions with: 
                l(1) =   0
                l(2) =   0
                l(3) =   1
                l(4) =   1
                l(5) =   2
                l(6) =   2
     Q(r) pseudized with  8 coefficients,  rinner =    1.200   1.200   1.200
                                                       1.200   1.200

     PseudoPot. # 2 for K  read from file:
     ./pseudo/K.pbesol-spn-kjpaw_psl.1.0.0.UPF
     MD5 check sum: b302bede38c4f5fe00638ceae66f121b
     Pseudo is Projector augmented-wave + core cor, Zval =  9.0
     Generated using "atomic" code by A. Dal Corso  v.6.0 svn rev. 13079
     Shape of augmentation charge: PSQ
     Using radial grid of 1165 points,  6 beta functions with: 
                l(1) =   0
                l(2) =   0
                l(3) =   1
                l(4) =   1
                l(5) =   2
                l(6) =   2
     Q(r) pseudized with 0 coefficients 


     atomic species   valence    mass     pseudopotential
        Co            17.00    58.93319     Co( 1.00)
        K              9.00    39.09830     K ( 1.00)

     Starting magnetic structure 
     atomic species   magnetization
        Co           0.294
        K            0.100

      4 Sym. Ops., with inversion, found ( 2 have fractional translation)


                                    s                        frac. trans.

      isym =  1     identity                                     

 cryst.   s( 1) = (     1          0          0      )
                  (     0          1          0      )
                  (     0          0          1      )

 cart.    s( 1) = (  1.0000000  0.0000000  0.0000000 )
                  (  0.0000000  1.0000000  0.0000000 )
                  (  0.0000000  0.0000000  1.0000000 )


      isym =  2     180 deg rotation - cart. axis [0,1,0]        

 cryst.   s( 2) = (    -1          0          0      )    f =( -0.0000000 )
                  (     0          1          0      )       ( -0.5000000 )
                  (     0          0         -1      )       (  0.5000000 )

 cart.    s( 2) = ( -1.0000000  0.0000000 -0.0000000 )    f =( -0.1749754 )
                  (  0.0000000  1.0000000  0.0000000 )       ( -0.7272727 )
                  (  0.0000000  0.0000000 -1.0000000 )       (  0.5607470 )


      isym =  3     inversion                                    

 cryst.   s( 3) = (    -1          0          0      )
                  (     0         -1          0      )
                  (     0          0         -1      )

 cart.    s( 3) = ( -1.0000000  0.0000000 -0.0000000 )
                  (  0.0000000 -1.0000000  0.0000000 )
                  (  0.0000000  0.0000000 -1.0000000 )


      isym =  4     inv. 180 deg rotation - cart. axis [0,1,0]   

 cryst.   s( 4) = (     1          0          0      )    f =( -0.0000000 )
                  (     0         -1          0      )       (  0.5000000 )
                  (     0          0          1      )       (  0.5000000 )

 cart.    s( 4) = (  1.0000000  0.0000000  0.0000000 )    f =( -0.1749754 )
                  (  0.0000000 -1.0000000  0.0000000 )       (  0.7272727 )
                  (  0.0000000  0.0000000  1.0000000 )       (  0.5607470 )


   Cartesian axes

     site n.     atom                  positions (alat units)
         1           K   tau(   1) = (  -0.1749754   0.0000000   0.5607470  )
         2           K   tau(   2) = (   0.0000000   0.7272727   0.0000000  )
         3           K   tau(   3) = (   0.4562562   1.0909091   0.1401867  )
         4           K   tau(   4) = (   0.3687685   0.3636364   0.4205602  )
         5           K   tau(   5) = (   0.1937931   0.3636364   0.9813072  )
         6           K   tau(   6) = (   0.2812808   1.0909091   0.7009337  )
         7           Co  tau(   7) = (   0.0000000   0.0000000   0.0000000  )
         8           Co  tau(   8) = (  -0.1749754   0.7272727   0.5607470  )

   Crystallographic axes

     site n.     atom                  positions (cryst. coord.)
         1           K   tau(   1) = (  0.0000000  0.0000000  0.5000000  )
         2           K   tau(   2) = (  0.0000000  0.5000000  0.0000000  )
         3           K   tau(   3) = (  0.5000000  0.7500000  0.1250000  )
         4           K   tau(   4) = (  0.5000000  0.2500000  0.3750000  )
         5           K   tau(   5) = (  0.5000000  0.2500000  0.8750000  )
         6           K   tau(   6) = (  0.5000000  0.7500000  0.6250000  )
         7           Co  tau(   7) = (  0.0000000  0.0000000  0.0000000  )
         8           Co  tau(   8) = (  0.0000000  0.5000000  0.5000000  )

     number of k points=    66  Marzari-Vanderbilt smearing, width (Ry)=  0.0100
                       cart. coord. in units 2pi/alat
        k(    1) = (   0.0000000   0.0000000   0.0000000), wk =   0.0047619
        k(    2) = (   0.0000000   0.0000000   0.1486113), wk =   0.0095238
        k(    3) = (   0.0000000   0.0000000   0.2972226), wk =   0.0095238
        k(    4) = (   0.0000000   0.0000000  -0.4458339), wk =   0.0047619
        k(    5) = (   0.0000000   0.1375000   0.0000000), wk =   0.0095238
        k(    6) = (   0.0000000   0.1375000   0.1486113), wk =   0.0190476
        k(    7) = (   0.0000000   0.1375000   0.2972226), wk =   0.0190476
        k(    8) = (   0.0000000   0.1375000  -0.4458339), wk =   0.0095238
        k(    9) = (   0.0000000   0.2750000   0.0000000), wk =   0.0095238
        k(   10) = (   0.0000000   0.2750000   0.1486113), wk =   0.0190476
        k(   11) = (   0.0000000   0.2750000   0.2972226), wk =   0.0190476
        k(   12) = (   0.0000000   0.2750000  -0.4458339), wk =   0.0095238
        k(   13) = (   0.1428571   0.0000000   0.0445771), wk =   0.0095238
        k(   14) = (   0.1428571   0.0000000   0.1931884), wk =   0.0095238
        k(   15) = (   0.1428571   0.0000000   0.3417997), wk =   0.0095238
        k(   16) = (   0.1428571   0.0000000  -0.4012568), wk =   0.0095238
        k(   17) = (   0.1428571   0.0000000  -0.2526455), wk =   0.0095238
        k(   18) = (   0.1428571   0.0000000  -0.1040342), wk =   0.0095238
        k(   19) = (   0.1428571   0.1375000   0.0445771), wk =   0.0190476
        k(   20) = (   0.1428571   0.1375000   0.1931884), wk =   0.0190476
        k(   21) = (   0.1428571   0.1375000   0.3417997), wk =   0.0190476
        k(   22) = (   0.1428571   0.1375000  -0.4012568), wk =   0.0190476
        k(   23) = (   0.1428571   0.1375000  -0.2526455), wk =   0.0190476
        k(   24) = (   0.1428571   0.1375000  -0.1040342), wk =   0.0190476
        k(   25) = (   0.1428571   0.2750000   0.0445771), wk =   0.0190476
        k(   26) = (   0.1428571   0.2750000   0.1931884), wk =   0.0190476
        k(   27) = (   0.1428571   0.2750000   0.3417997), wk =   0.0190476
        k(   28) = (   0.1428571   0.2750000  -0.4012568), wk =   0.0190476
        k(   29) = (   0.1428571   0.2750000  -0.2526455), wk =   0.0190476
        k(   30) = (   0.1428571   0.2750000  -0.1040342), wk =   0.0190476
        k(   31) = (   0.2857143   0.0000000   0.0891542), wk =   0.0095238
        k(   32) = (   0.2857143   0.0000000   0.2377655), wk =   0.0095238
        k(   33) = (   0.2857143   0.0000000   0.3863768), wk =   0.0095238
        k(   34) = (   0.2857143   0.0000000  -0.3566797), wk =   0.0095238
        k(   35) = (   0.2857143   0.0000000  -0.2080684), wk =   0.0095238
        k(   36) = (   0.2857143   0.0000000  -0.0594571), wk =   0.0095238
        k(   37) = (   0.2857143   0.1375000   0.0891542), wk =   0.0190476
        k(   38) = (   0.2857143   0.1375000   0.2377655), wk =   0.0190476
        k(   39) = (   0.2857143   0.1375000   0.3863768), wk =   0.0190476
        k(   40) = (   0.2857143   0.1375000  -0.3566797), wk =   0.0190476
        k(   41) = (   0.2857143   0.1375000  -0.2080684), wk =   0.0190476
        k(   42) = (   0.2857143   0.1375000  -0.0594571), wk =   0.0190476
        k(   43) = (   0.2857143   0.2750000   0.0891542), wk =   0.0190476
        k(   44) = (   0.2857143   0.2750000   0.2377655), wk =   0.0190476
        k(   45) = (   0.2857143   0.2750000   0.3863768), wk =   0.0190476
        k(   46) = (   0.2857143   0.2750000  -0.3566797), wk =   0.0190476
        k(   47) = (   0.2857143   0.2750000  -0.2080684), wk =   0.0190476
        k(   48) = (   0.2857143   0.2750000  -0.0594571), wk =   0.0190476
        k(   49) = (   0.4285714   0.0000000   0.1337313), wk =   0.0095238
        k(   50) = (   0.4285714   0.0000000   0.2823426), wk =   0.0095238
        k(   51) = (   0.4285714   0.0000000   0.4309539), wk =   0.0095238
        k(   52) = (   0.4285714   0.0000000  -0.3121025), wk =   0.0095238
        k(   53) = (   0.4285714   0.0000000  -0.1634912), wk =   0.0095238
        k(   54) = (   0.4285714   0.0000000  -0.0148800), wk =   0.0095238
        k(   55) = (   0.4285714   0.1375000   0.1337313), wk =   0.0190476
        k(   56) = (   0.4285714   0.1375000   0.2823426), wk =   0.0190476
        k(   57) = (   0.4285714   0.1375000   0.4309539), wk =   0.0190476
        k(   58) = (   0.4285714   0.1375000  -0.3121025), wk =   0.0190476
        k(   59) = (   0.4285714   0.1375000  -0.1634912), wk =   0.0190476
        k(   60) = (   0.4285714   0.1375000  -0.0148800), wk =   0.0190476
        k(   61) = (   0.4285714   0.2750000   0.1337313), wk =   0.0190476
        k(   62) = (   0.4285714   0.2750000   0.2823426), wk =   0.0190476
        k(   63) = (   0.4285714   0.2750000   0.4309539), wk =   0.0190476
        k(   64) = (   0.4285714   0.2750000  -0.3121025), wk =   0.0190476
        k(   65) = (   0.4285714   0.2750000  -0.1634912), wk =   0.0190476
        k(   66) = (   0.4285714   0.2750000  -0.0148800), wk =   0.0190476

                       cryst. coord.
        k(    1) = (   0.0000000   0.0000000   0.0000000), wk =   0.0047619
        k(    2) = (   0.0000000   0.0000000   0.1666667), wk =   0.0095238
        k(    3) = (   0.0000000   0.0000000   0.3333333), wk =   0.0095238
        k(    4) = (   0.0000000   0.0000000  -0.5000000), wk =   0.0047619
        k(    5) = (   0.0000000   0.2000000   0.0000000), wk =   0.0095238
        k(    6) = (   0.0000000   0.2000000   0.1666667), wk =   0.0190476
        k(    7) = (   0.0000000   0.2000000   0.3333333), wk =   0.0190476
        k(    8) = (   0.0000000   0.2000000  -0.5000000), wk =   0.0095238
        k(    9) = (   0.0000000   0.4000000   0.0000000), wk =   0.0095238
        k(   10) = (   0.0000000   0.4000000   0.1666667), wk =   0.0190476
        k(   11) = (   0.0000000   0.4000000   0.3333333), wk =   0.0190476
        k(   12) = (   0.0000000   0.4000000  -0.5000000), wk =   0.0095238
        k(   13) = (   0.1428571   0.0000000  -0.0000000), wk =   0.0095238
        k(   14) = (   0.1428571   0.0000000   0.1666667), wk =   0.0095238
        k(   15) = (   0.1428571   0.0000000   0.3333333), wk =   0.0095238
        k(   16) = (   0.1428571   0.0000000  -0.5000000), wk =   0.0095238
        k(   17) = (   0.1428571   0.0000000  -0.3333333), wk =   0.0095238
        k(   18) = (   0.1428571   0.0000000  -0.1666667), wk =   0.0095238
        k(   19) = (   0.1428571   0.2000000  -0.0000000), wk =   0.0190476
        k(   20) = (   0.1428571   0.2000000   0.1666667), wk =   0.0190476
        k(   21) = (   0.1428571   0.2000000   0.3333333), wk =   0.0190476
        k(   22) = (   0.1428571   0.2000000  -0.5000000), wk =   0.0190476
        k(   23) = (   0.1428571   0.2000000  -0.3333333), wk =   0.0190476
        k(   24) = (   0.1428571   0.2000000  -0.1666667), wk =   0.0190476
        k(   25) = (   0.1428571   0.4000000  -0.0000000), wk =   0.0190476
        k(   26) = (   0.1428571   0.4000000   0.1666667), wk =   0.0190476
        k(   27) = (   0.1428571   0.4000000   0.3333333), wk =   0.0190476
        k(   28) = (   0.1428571   0.4000000  -0.5000000), wk =   0.0190476
        k(   29) = (   0.1428571   0.4000000  -0.3333333), wk =   0.0190476
        k(   30) = (   0.1428571   0.4000000  -0.1666667), wk =   0.0190476
        k(   31) = (   0.2857143   0.0000000  -0.0000000), wk =   0.0095238
        k(   32) = (   0.2857143   0.0000000   0.1666667), wk =   0.0095238
        k(   33) = (   0.2857143   0.0000000   0.3333333), wk =   0.0095238
        k(   34) = (   0.2857143   0.0000000  -0.5000000), wk =   0.0095238
        k(   35) = (   0.2857143   0.0000000  -0.3333333), wk =   0.0095238
        k(   36) = (   0.2857143   0.0000000  -0.1666667), wk =   0.0095238
        k(   37) = (   0.2857143   0.2000000  -0.0000000), wk =   0.0190476
        k(   38) = (   0.2857143   0.2000000   0.1666667), wk =   0.0190476
        k(   39) = (   0.2857143   0.2000000   0.3333333), wk =   0.0190476
        k(   40) = (   0.2857143   0.2000000  -0.5000000), wk =   0.0190476
        k(   41) = (   0.2857143   0.2000000  -0.3333333), wk =   0.0190476
        k(   42) = (   0.2857143   0.2000000  -0.1666667), wk =   0.0190476
        k(   43) = (   0.2857143   0.4000000  -0.0000000), wk =   0.0190476
        k(   44) = (   0.2857143   0.4000000   0.1666667), wk =   0.0190476
        k(   45) = (   0.2857143   0.4000000   0.3333333), wk =   0.0190476
        k(   46) = (   0.2857143   0.4000000  -0.5000000), wk =   0.0190476
        k(   47) = (   0.2857143   0.4000000  -0.3333333), wk =   0.0190476
        k(   48) = (   0.2857143   0.4000000  -0.1666667), wk =   0.0190476
        k(   49) = (   0.4285714   0.0000000   0.0000000), wk =   0.0095238
        k(   50) = (   0.4285714   0.0000000   0.1666667), wk =   0.0095238
        k(   51) = (   0.4285714   0.0000000   0.3333333), wk =   0.0095238
        k(   52) = (   0.4285714   0.0000000  -0.5000000), wk =   0.0095238
        k(   53) = (   0.4285714   0.0000000  -0.3333333), wk =   0.0095238
        k(   54) = (   0.4285714   0.0000000  -0.1666667), wk =   0.0095238
        k(   55) = (   0.4285714   0.2000000   0.0000000), wk =   0.0190476
        k(   56) = (   0.4285714   0.2000000   0.1666667), wk =   0.0190476
        k(   57) = (   0.4285714   0.2000000   0.3333333), wk =   0.0190476
        k(   58) = (   0.4285714   0.2000000  -0.5000000), wk =   0.0190476
        k(   59) = (   0.4285714   0.2000000  -0.3333333), wk =   0.0190476
        k(   60) = (   0.4285714   0.2000000  -0.1666667), wk =   0.0190476
        k(   61) = (   0.4285714   0.4000000   0.0000000), wk =   0.0190476
        k(   62) = (   0.4285714   0.4000000   0.1666667), wk =   0.0190476
        k(   63) = (   0.4285714   0.4000000   0.3333333), wk =   0.0190476
        k(   64) = (   0.4285714   0.4000000  -0.5000000), wk =   0.0190476
        k(   65) = (   0.4285714   0.4000000  -0.3333333), wk =   0.0190476
        k(   66) = (   0.4285714   0.4000000  -0.1666667), wk =   0.0190476

     Dense  grid:   714511 G-vectors     FFT dimensions: (  96, 144, 120)

     Smooth grid:   252665 G-vectors     FFT dimensions: (  72, 100,  80)

     Dynamical RAM for                 wfc:      25.54 MB

     Dynamical RAM for     wfc (w. buffer):    3396.72 MB

     Dynamical RAM for           str. fact:      21.81 MB

     Dynamical RAM for           local pot:       0.00 MB

     Dynamical RAM for          nlocal pot:      69.39 MB

     Dynamical RAM for                qrad:       3.52 MB

     Dynamical RAM for          rho,v,vnew:     141.35 MB

     Dynamical RAM for               rhoin:      47.12 MB

     Dynamical RAM for            rho*nmix:     348.88 MB

     Dynamical RAM for           G-vectors:      42.81 MB

     Dynamical RAM for          h,s,v(r/c):       0.51 MB

     Dynamical RAM for          <psi|beta>:       0.12 MB

     Dynamical RAM for                 psi:      51.08 MB

     Dynamical RAM for                hpsi:      51.08 MB

     Dynamical RAM for                spsi:      51.08 MB

     Dynamical RAM for      wfcinit/wfcrot:      51.14 MB

     Dynamical RAM for           addusdens:    2104.20 MB

     Dynamical RAM for          addusforce:    2213.27 MB

     Dynamical RAM for         addusstress:    2207.77 MB

     Estimated static dynamical RAM per process >       3.74 GB

     Estimated max dynamical RAM per process >       6.24 GB

     Atomic positions and unit cell read from directory:
     ./out/aiida.save/
 

     Check: negative core charge=   -0.000003
     Generating pointlists ...
     new r_m :   0.2423 (alat units)  3.2740 (a.u.) for type    1
     new r_m :   0.2423 (alat units)  3.2740 (a.u.) for type    2

     The initial density is read from file :
     ./out/aiida.save/charge-density


     starting charge      88.0006, renormalised to      88.0000
     Starting wfcs from file
     Checking if some PAW data can be deallocated... 

     total cpu time spent up to now is        8.8 secs

     per-process dynamical memory:   813.5 Mb

     Self-consistent Calculation
[tb_dev] Currently allocated     6.10E-05 Mbytes, locked:    0 /   2
[tb_pin] Currently allocated     0.00E+00 Mbytes, locked:    0 /   0

     iteration #  1     ecut=    60.00 Ry     beta= 0.20
     Davidson diagonalization with overlap

---- Real-time Memory Report at c_bands before calling an iterative solver
          1320 MiB given to the printing process from OS
           839 MiB allocation reported by mallinfo(arena+hblkhd)
         58642 MiB available memory on the node where the printing process lives
     GPU memory used/free/total (MiB): 2164 / 14116 / 16280
------------------
     ethr =  1.00E-05,  avg # of iterations =  2.6

     total cpu time spent up to now is       31.9 secs

     total energy              =   -1264.12508423 Ry
     estimated scf accuracy    <       0.00126198 Ry

     total magnetization       =     4.23 Bohr mag/cell
     absolute magnetization    =     4.82 Bohr mag/cell
[tb_dev] Currently allocated     1.76E+01 Mbytes, locked:    0 /   9
[tb_pin] Currently allocated     0.00E+00 Mbytes, locked:    0 /   0

     iteration #  2     ecut=    60.00 Ry     beta= 0.20
     Davidson diagonalization with overlap

---- Real-time Memory Report at c_bands before calling an iterative solver
          5423 MiB given to the printing process from OS
           555 MiB allocation reported by mallinfo(arena+hblkhd)
         50590 MiB available memory on the node where the printing process lives
     GPU memory used/free/total (MiB): 5240 / 11040 / 16280
------------------
     ethr =  1.43E-06,  avg # of iterations =  3.0

     total cpu time spent up to now is       50.5 secs

     total energy              =   -1264.12482327 Ry
     estimated scf accuracy    <       0.01957494 Ry

     total magnetization       =     4.44 Bohr mag/cell
     absolute magnetization    =     5.08 Bohr mag/cell
[tb_dev] Currently allocated     1.76E+01 Mbytes, locked:    0 /   9
[tb_pin] Currently allocated     0.00E+00 Mbytes, locked:    0 /   0

     iteration #  3     ecut=    60.00 Ry     beta= 0.20
     Davidson diagonalization with overlap

---- Real-time Memory Report at c_bands before calling an iterative solver
          5582 MiB given to the printing process from OS
           597 MiB allocation reported by mallinfo(arena+hblkhd)
         50547 MiB available memory on the node where the printing process lives
     GPU memory used/free/total (MiB): 5814 / 10466 / 16280
------------------
     ethr =  1.43E-06,  avg # of iterations =  2.1

     total cpu time spent up to now is       67.8 secs

     total energy              =   -1264.12536560 Ry
     estimated scf accuracy    <       0.00023137 Ry

     total magnetization       =     4.27 Bohr mag/cell
     absolute magnetization    =     4.89 Bohr mag/cell
[tb_dev] Currently allocated     1.76E+01 Mbytes, locked:    0 /   9
[tb_pin] Currently allocated     0.00E+00 Mbytes, locked:    0 /   0

     iteration #  4     ecut=    60.00 Ry     beta= 0.20
     Davidson diagonalization with overlap

---- Real-time Memory Report at c_bands before calling an iterative solver
          5661 MiB given to the printing process from OS
           624 MiB allocation reported by mallinfo(arena+hblkhd)
         50522 MiB available memory on the node where the printing process lives
     GPU memory used/free/total (MiB): 5814 / 10466 / 16280
------------------
     ethr =  2.63E-07,  avg # of iterations =  2.7

     total cpu time spent up to now is       85.6 secs

     total energy              =   -1264.12539185 Ry
     estimated scf accuracy    <       0.00004629 Ry

     total magnetization       =     4.26 Bohr mag/cell
     absolute magnetization    =     4.88 Bohr mag/cell
[tb_dev] Currently allocated     1.76E+01 Mbytes, locked:    0 /   9
[tb_pin] Currently allocated     0.00E+00 Mbytes, locked:    0 /   0

     iteration #  5     ecut=    60.00 Ry     beta= 0.20
     Davidson diagonalization with overlap

---- Real-time Memory Report at c_bands before calling an iterative solver
          5688 MiB given to the printing process from OS
           652 MiB allocation reported by mallinfo(arena+hblkhd)
         50497 MiB available memory on the node where the printing process lives
     GPU memory used/free/total (MiB): 5814 / 10466 / 16280
------------------
     ethr =  5.26E-08,  avg # of iterations =  2.1

     total cpu time spent up to now is      102.8 secs

     total energy              =   -1264.12540754 Ry
     estimated scf accuracy    <       0.00007473 Ry

     total magnetization       =     4.27 Bohr mag/cell
     absolute magnetization    =     4.90 Bohr mag/cell
[tb_dev] Currently allocated     1.76E+01 Mbytes, locked:    0 /   9
[tb_pin] Currently allocated     0.00E+00 Mbytes, locked:    0 /   0

     iteration #  6     ecut=    60.00 Ry     beta= 0.20
     Davidson diagonalization with overlap

---- Real-time Memory Report at c_bands before calling an iterative solver
          5715 MiB given to the printing process from OS
           679 MiB allocation reported by mallinfo(arena+hblkhd)
         50469 MiB available memory on the node where the printing process lives
     GPU memory used/free/total (MiB): 5814 / 10466 / 16280
------------------
     ethr =  5.26E-08,  avg # of iterations =  2.1

     total cpu time spent up to now is      120.3 secs

     total energy              =   -1264.12541655 Ry
     estimated scf accuracy    <       0.00001003 Ry

     total magnetization       =     4.26 Bohr mag/cell
     absolute magnetization    =     4.90 Bohr mag/cell
[tb_dev] Currently allocated     1.76E+01 Mbytes, locked:    0 /   9
[tb_pin] Currently allocated     0.00E+00 Mbytes, locked:    0 /   0

     iteration #  7     ecut=    60.00 Ry     beta= 0.20
     Davidson diagonalization with overlap

---- Real-time Memory Report at c_bands before calling an iterative solver
          5750 MiB given to the printing process from OS
           714 MiB allocation reported by mallinfo(arena+hblkhd)
         50408 MiB available memory on the node where the printing process lives
     GPU memory used/free/total (MiB): 5814 / 10466 / 16280
------------------
     ethr =  1.14E-08,  avg # of iterations =  4.4

     total cpu time spent up to now is      140.1 secs

     total energy              =   -1264.12541933 Ry
     estimated scf accuracy    <       0.00000674 Ry

     total magnetization       =     4.26 Bohr mag/cell
     absolute magnetization    =     4.90 Bohr mag/cell
[tb_dev] Currently allocated     1.76E+01 Mbytes, locked:    0 /   9
[tb_pin] Currently allocated     0.00E+00 Mbytes, locked:    0 /   0

     iteration #  8     ecut=    60.00 Ry     beta= 0.20
     Davidson diagonalization with overlap

---- Real-time Memory Report at c_bands before calling an iterative solver
          5786 MiB given to the printing process from OS
           749 MiB allocation reported by mallinfo(arena+hblkhd)
         50387 MiB available memory on the node where the printing process lives
     GPU memory used/free/total (MiB): 5814 / 10466 / 16280
------------------
     ethr =  7.66E-09,  avg # of iterations =  1.0

     total cpu time spent up to now is      156.0 secs

     total energy              =   -1264.12541976 Ry
     estimated scf accuracy    <       0.00000608 Ry

     total magnetization       =     4.26 Bohr mag/cell
     absolute magnetization    =     4.90 Bohr mag/cell
[tb_dev] Currently allocated     1.76E+01 Mbytes, locked:    0 /   9
[tb_pin] Currently allocated     0.00E+00 Mbytes, locked:    0 /   0

     iteration #  9     ecut=    60.00 Ry     beta= 0.20
     Davidson diagonalization with overlap

---- Real-time Memory Report at c_bands before calling an iterative solver
          5821 MiB given to the printing process from OS
           784 MiB allocation reported by mallinfo(arena+hblkhd)
         50358 MiB available memory on the node where the printing process lives
     GPU memory used/free/total (MiB): 5814 / 10466 / 16280
------------------
     ethr =  6.91E-09,  avg # of iterations =  1.0

     total cpu time spent up to now is      171.9 secs

     total energy              =   -1264.12541997 Ry
     estimated scf accuracy    <       0.00000603 Ry

     total magnetization       =     4.26 Bohr mag/cell
     absolute magnetization    =     4.90 Bohr mag/cell
[tb_dev] Currently allocated     1.76E+01 Mbytes, locked:    0 /   9
[tb_pin] Currently allocated     0.00E+00 Mbytes, locked:    0 /   0

     iteration # 10     ecut=    60.00 Ry     beta= 0.20
     Davidson diagonalization with overlap

---- Real-time Memory Report at c_bands before calling an iterative solver
          5848 MiB given to the printing process from OS
           811 MiB allocation reported by mallinfo(arena+hblkhd)
         50331 MiB available memory on the node where the printing process lives
     GPU memory used/free/total (MiB): 5814 / 10466 / 16280
------------------
     ethr =  6.86E-09,  avg # of iterations =  1.0

     total cpu time spent up to now is      187.7 secs

     total energy              =   -1264.12541911 Ry
     estimated scf accuracy    <       0.00000608 Ry

     total magnetization       =     4.26 Bohr mag/cell
     absolute magnetization    =     4.90 Bohr mag/cell
[tb_dev] Currently allocated     1.76E+01 Mbytes, locked:    0 /   9
[tb_pin] Currently allocated     0.00E+00 Mbytes, locked:    0 /   0

     iteration # 11     ecut=    60.00 Ry     beta= 0.20
     Davidson diagonalization with overlap

---- Real-time Memory Report at c_bands before calling an iterative solver
          5867 MiB given to the printing process from OS
           823 MiB allocation reported by mallinfo(arena+hblkhd)
         50318 MiB available memory on the node where the printing process lives
     GPU memory used/free/total (MiB): 5814 / 10466 / 16280
------------------
     ethr =  6.86E-09,  avg # of iterations =  1.0

     total cpu time spent up to now is      203.8 secs

     total energy              =   -1264.12542203 Ry
     estimated scf accuracy    <       0.00000669 Ry

     total magnetization       =     4.26 Bohr mag/cell
     absolute magnetization    =     4.90 Bohr mag/cell
[tb_dev] Currently allocated     1.76E+01 Mbytes, locked:    0 /   9
[tb_pin] Currently allocated     0.00E+00 Mbytes, locked:    0 /   0

     iteration # 12     ecut=    60.00 Ry     beta= 0.20
     Davidson diagonalization with overlap

---- Real-time Memory Report at c_bands before calling an iterative solver
          5879 MiB given to the printing process from OS
           835 MiB allocation reported by mallinfo(arena+hblkhd)
         50311 MiB available memory on the node where the printing process lives
     GPU memory used/free/total (MiB): 5814 / 10466 / 16280
------------------
     ethr =  6.86E-09,  avg # of iterations =  2.0

     total cpu time spent up to now is      221.4 secs

     total energy              =   -1264.12542829 Ry
     estimated scf accuracy    <       0.00000418 Ry

     total magnetization       =     4.26 Bohr mag/cell
     absolute magnetization    =     4.90 Bohr mag/cell
[tb_dev] Currently allocated     1.76E+01 Mbytes, locked:    0 /   9
[tb_pin] Currently allocated     0.00E+00 Mbytes, locked:    0 /   0

     iteration # 13     ecut=    60.00 Ry     beta= 0.20
     Davidson diagonalization with overlap

---- Real-time Memory Report at c_bands before calling an iterative solver
          5882 MiB given to the printing process from OS
           846 MiB allocation reported by mallinfo(arena+hblkhd)
         50296 MiB available memory on the node where the printing process lives
     GPU memory used/free/total (MiB): 5814 / 10466 / 16280
------------------
     ethr =  4.75E-09,  avg # of iterations =  2.4

     total cpu time spent up to now is      239.3 secs

     total energy              =   -1264.12540354 Ry
     estimated scf accuracy    <       0.00000442 Ry

     total magnetization       =     4.26 Bohr mag/cell
     absolute magnetization    =     4.90 Bohr mag/cell
[tb_dev] Currently allocated     1.76E+01 Mbytes, locked:    0 /   9
[tb_pin] Currently allocated     0.00E+00 Mbytes, locked:    0 /   0

     iteration # 14     ecut=    60.00 Ry     beta= 0.20
     Davidson diagonalization with overlap

---- Real-time Memory Report at c_bands before calling an iterative solver
          5903 MiB given to the printing process from OS
           858 MiB allocation reported by mallinfo(arena+hblkhd)
         50286 MiB available memory on the node where the printing process lives
     GPU memory used/free/total (MiB): 5814 / 10466 / 16280
------------------
     ethr =  4.75E-09,  avg # of iterations =  2.5

     total cpu time spent up to now is      257.8 secs

     total energy              =   -1264.12539901 Ry
     estimated scf accuracy    <       0.00000708 Ry

     total magnetization       =     4.26 Bohr mag/cell
     absolute magnetization    =     4.90 Bohr mag/cell
[tb_dev] Currently allocated     1.76E+01 Mbytes, locked:    0 /   9
[tb_pin] Currently allocated     0.00E+00 Mbytes, locked:    0 /   0

     iteration # 15     ecut=    60.00 Ry     beta= 0.20
     Davidson diagonalization with overlap

---- Real-time Memory Report at c_bands before calling an iterative solver
          5915 MiB given to the printing process from OS
           870 MiB allocation reported by mallinfo(arena+hblkhd)
         50276 MiB available memory on the node where the printing process lives
     GPU memory used/free/total (MiB): 5814 / 10466 / 16280
------------------
     ethr =  4.75E-09,  avg # of iterations =  3.9

     total cpu time spent up to now is      278.1 secs

     total energy              =   -1264.12543733 Ry
     estimated scf accuracy    <       0.00001198 Ry

     total magnetization       =     4.26 Bohr mag/cell
     absolute magnetization    =     4.90 Bohr mag/cell
[tb_dev] Currently allocated     1.76E+01 Mbytes, locked:    0 /   9
[tb_pin] Currently allocated     0.00E+00 Mbytes, locked:    0 /   0

     iteration # 16     ecut=    60.00 Ry     beta= 0.20
     Davidson diagonalization with overlap

---- Real-time Memory Report at c_bands before calling an iterative solver
          5926 MiB given to the printing process from OS
           882 MiB allocation reported by mallinfo(arena+hblkhd)
         50264 MiB available memory on the node where the printing process lives
     GPU memory used/free/total (MiB): 5814 / 10466 / 16280
------------------
     ethr =  4.75E-09,  avg # of iterations =  1.0

     total cpu time spent up to now is      294.7 secs

     total energy              =   -1264.12543892 Ry
     estimated scf accuracy    <       0.00001278 Ry

     total magnetization       =     4.26 Bohr mag/cell
     absolute magnetization    =     4.90 Bohr mag/cell
[tb_dev] Currently allocated     1.76E+01 Mbytes, locked:    0 /   9
[tb_pin] Currently allocated     0.00E+00 Mbytes, locked:    0 /   0

     iteration # 17     ecut=    60.00 Ry     beta= 0.20
     Davidson diagonalization with overlap

---- Real-time Memory Report at c_bands before calling an iterative solver
          5938 MiB given to the printing process from OS
           893 MiB allocation reported by mallinfo(arena+hblkhd)
         50253 MiB available memory on the node where the printing process lives
     GPU memory used/free/total (MiB): 5814 / 10466 / 16280
------------------
     ethr =  4.75E-09,  avg # of iterations =  1.0

     total cpu time spent up to now is      310.9 secs

     total energy              =   -1264.12543031 Ry
     estimated scf accuracy    <       0.00001300 Ry

     total magnetization       =     4.26 Bohr mag/cell
     absolute magnetization    =     4.90 Bohr mag/cell
[tb_dev] Currently allocated     1.76E+01 Mbytes, locked:    0 /   9
[tb_pin] Currently allocated     0.00E+00 Mbytes, locked:    0 /   0

     iteration # 18     ecut=    60.00 Ry     beta= 0.20
     Davidson diagonalization with overlap

---- Real-time Memory Report at c_bands before calling an iterative solver
          5950 MiB given to the printing process from OS
           905 MiB allocation reported by mallinfo(arena+hblkhd)
         50245 MiB available memory on the node where the printing process lives
     GPU memory used/free/total (MiB): 5814 / 10466 / 16280
------------------
     ethr =  4.75E-09,  avg # of iterations =  4.0

     total cpu time spent up to now is      331.3 secs

     total energy              =   -1264.12545710 Ry
     estimated scf accuracy    <       0.00000383 Ry

     total magnetization       =     4.26 Bohr mag/cell
     absolute magnetization    =     4.91 Bohr mag/cell
[tb_dev] Currently allocated     1.76E+01 Mbytes, locked:    0 /   9
[tb_pin] Currently allocated     0.00E+00 Mbytes, locked:    0 /   0

     iteration # 19     ecut=    60.00 Ry     beta= 0.20
     Davidson diagonalization with overlap

---- Real-time Memory Report at c_bands before calling an iterative solver
          5961 MiB given to the printing process from OS
           917 MiB allocation reported by mallinfo(arena+hblkhd)
         50230 MiB available memory on the node where the printing process lives
     GPU memory used/free/total (MiB): 5814 / 10466 / 16280
------------------
     ethr =  4.35E-09,  avg # of iterations =  1.0

     total cpu time spent up to now is      347.3 secs

     total energy              =   -1264.12545720 Ry
     estimated scf accuracy    <       0.00000395 Ry

     total magnetization       =     4.26 Bohr mag/cell
     absolute magnetization    =     4.91 Bohr mag/cell
[tb_dev] Currently allocated     1.76E+01 Mbytes, locked:    0 /   9
[tb_pin] Currently allocated     0.00E+00 Mbytes, locked:    0 /   0

     iteration # 20     ecut=    60.00 Ry     beta= 0.20
     Davidson diagonalization with overlap

---- Real-time Memory Report at c_bands before calling an iterative solver
          5973 MiB given to the printing process from OS
           929 MiB allocation reported by mallinfo(arena+hblkhd)
         50220 MiB available memory on the node where the printing process lives
     GPU memory used/free/total (MiB): 5814 / 10466 / 16280
------------------
     ethr =  4.35E-09,  avg # of iterations =  1.0

     total cpu time spent up to now is      363.4 secs

     total energy              =   -1264.12544331 Ry
     estimated scf accuracy    <       0.00000385 Ry

     total magnetization       =     4.26 Bohr mag/cell
     absolute magnetization    =     4.91 Bohr mag/cell
[tb_dev] Currently allocated     1.76E+01 Mbytes, locked:    0 /   9
[tb_pin] Currently allocated     0.00E+00 Mbytes, locked:    0 /   0

     iteration # 21     ecut=    60.00 Ry     beta= 0.20
     Davidson diagonalization with overlap

---- Real-time Memory Report at c_bands before calling an iterative solver
          5985 MiB given to the printing process from OS
           940 MiB allocation reported by mallinfo(arena+hblkhd)
         50206 MiB available memory on the node where the printing process lives
     GPU memory used/free/total (MiB): 5814 / 10466 / 16280
------------------
     ethr =  4.35E-09,  avg # of iterations =  2.2

     total cpu time spent up to now is      381.7 secs

     total energy              =   -1264.12542950 Ry
     estimated scf accuracy    <       0.00000452 Ry

     total magnetization       =     4.26 Bohr mag/cell
     absolute magnetization    =     4.91 Bohr mag/cell
[tb_dev] Currently allocated     1.76E+01 Mbytes, locked:    0 /   9
[tb_pin] Currently allocated     0.00E+00 Mbytes, locked:    0 /   0

     iteration # 22     ecut=    60.00 Ry     beta= 0.20
     Davidson diagonalization with overlap

---- Real-time Memory Report at c_bands before calling an iterative solver
          5997 MiB given to the printing process from OS
           952 MiB allocation reported by mallinfo(arena+hblkhd)
         50199 MiB available memory on the node where the printing process lives
     GPU memory used/free/total (MiB): 5814 / 10466 / 16280
------------------
     ethr =  4.35E-09,  avg # of iterations =  3.9

     total cpu time spent up to now is      401.9 secs

     total energy              =   -1264.12546914 Ry
     estimated scf accuracy    <       0.00000359 Ry

     total magnetization       =     4.27 Bohr mag/cell
     absolute magnetization    =     4.91 Bohr mag/cell
[tb_dev] Currently allocated     1.76E+01 Mbytes, locked:    0 /   9
[tb_pin] Currently allocated     0.00E+00 Mbytes, locked:    0 /   0

     iteration # 23     ecut=    60.00 Ry     beta= 0.20
     Davidson diagonalization with overlap

---- Real-time Memory Report at c_bands before calling an iterative solver
          6009 MiB given to the printing process from OS
           964 MiB allocation reported by mallinfo(arena+hblkhd)
         50185 MiB available memory on the node where the printing process lives
     GPU memory used/free/total (MiB): 5814 / 10466 / 16280
------------------
     ethr =  4.08E-09,  avg # of iterations =  2.9

     total cpu time spent up to now is      421.1 secs

     total energy              =   -1264.12547747 Ry
     estimated scf accuracy    <       0.00000339 Ry

     total magnetization       =     4.27 Bohr mag/cell
     absolute magnetization    =     4.91 Bohr mag/cell
[tb_dev] Currently allocated     1.76E+01 Mbytes, locked:    0 /   9
[tb_pin] Currently allocated     0.00E+00 Mbytes, locked:    0 /   0

     iteration # 24     ecut=    60.00 Ry     beta= 0.20
     Davidson diagonalization with overlap

---- Real-time Memory Report at c_bands before calling an iterative solver
          6020 MiB given to the printing process from OS
           976 MiB allocation reported by mallinfo(arena+hblkhd)
         50172 MiB available memory on the node where the printing process lives
     GPU memory used/free/total (MiB): 5814 / 10466 / 16280
------------------
     ethr =  3.85E-09,  avg # of iterations =  3.4

     total cpu time spent up to now is      440.6 secs

     total energy              =   -1264.12539347 Ry
     estimated scf accuracy    <       0.00000315 Ry

     total magnetization       =     4.27 Bohr mag/cell
     absolute magnetization    =     4.91 Bohr mag/cell
[tb_dev] Currently allocated     1.76E+01 Mbytes, locked:    0 /   9
[tb_pin] Currently allocated     0.00E+00 Mbytes, locked:    0 /   0

     iteration # 25     ecut=    60.00 Ry     beta= 0.20
     Davidson diagonalization with overlap

---- Real-time Memory Report at c_bands before calling an iterative solver
          6032 MiB given to the printing process from OS
           988 MiB allocation reported by mallinfo(arena+hblkhd)
         50159 MiB available memory on the node where the printing process lives
     GPU memory used/free/total (MiB): 5814 / 10466 / 16280
------------------
     ethr =  3.58E-09,  avg # of iterations =  5.0

     total cpu time spent up to now is      463.1 secs

     total energy              =   -1264.12548967 Ry
     estimated scf accuracy    <       0.00000667 Ry

     total magnetization       =     4.27 Bohr mag/cell
     absolute magnetization    =     4.91 Bohr mag/cell
[tb_dev] Currently allocated     1.76E+01 Mbytes, locked:    0 /   9
[tb_pin] Currently allocated     0.00E+00 Mbytes, locked:    0 /   0

     iteration # 26     ecut=    60.00 Ry     beta= 0.20
     Davidson diagonalization with overlap

---- Real-time Memory Report at c_bands before calling an iterative solver
          6043 MiB given to the printing process from OS
           999 MiB allocation reported by mallinfo(arena+hblkhd)
         50147 MiB available memory on the node where the printing process lives
     GPU memory used/free/total (MiB): 5814 / 10466 / 16280
------------------
     ethr =  3.58E-09,  avg # of iterations =  4.2

     total cpu time spent up to now is      484.3 secs

     total energy              =   -1264.12548009 Ry
     estimated scf accuracy    <       0.00000984 Ry

     total magnetization       =     4.27 Bohr mag/cell
     absolute magnetization    =     4.91 Bohr mag/cell
[tb_dev] Currently allocated     1.76E+01 Mbytes, locked:    0 /   9
[tb_pin] Currently allocated     0.00E+00 Mbytes, locked:    0 /   0

     iteration # 27     ecut=    60.00 Ry     beta= 0.20
     Davidson diagonalization with overlap

---- Real-time Memory Report at c_bands before calling an iterative solver
          6056 MiB given to the printing process from OS
          1011 MiB allocation reported by mallinfo(arena+hblkhd)
         50137 MiB available memory on the node where the printing process lives
     GPU memory used/free/total (MiB): 5814 / 10466 / 16280
------------------
     ethr =  3.58E-09,  avg # of iterations =  4.1

     total cpu time spent up to now is      505.0 secs

     total energy              =   -1264.12551589 Ry
     estimated scf accuracy    <       0.00000245 Ry

     total magnetization       =     4.27 Bohr mag/cell
     absolute magnetization    =     4.91 Bohr mag/cell
[tb_dev] Currently allocated     1.76E+01 Mbytes, locked:    0 /   9
[tb_pin] Currently allocated     0.00E+00 Mbytes, locked:    0 /   0

     iteration # 28     ecut=    60.00 Ry     beta= 0.20
     Davidson diagonalization with overlap

---- Real-time Memory Report at c_bands before calling an iterative solver
          6068 MiB given to the printing process from OS
          1023 MiB allocation reported by mallinfo(arena+hblkhd)
         50124 MiB available memory on the node where the printing process lives
     GPU memory used/free/total (MiB): 5814 / 10466 / 16280
------------------
     ethr =  2.79E-09,  avg # of iterations =  2.0

     total cpu time spent up to now is      522.0 secs

     total energy              =   -1264.12550589 Ry
     estimated scf accuracy    <       0.00000223 Ry

     total magnetization       =     4.27 Bohr mag/cell
     absolute magnetization    =     4.91 Bohr mag/cell
[tb_dev] Currently allocated     1.76E+01 Mbytes, locked:    0 /   9
[tb_pin] Currently allocated     0.00E+00 Mbytes, locked:    0 /   0

     iteration # 29     ecut=    60.00 Ry     beta= 0.20
     Davidson diagonalization with overlap

---- Real-time Memory Report at c_bands before calling an iterative solver
          6080 MiB given to the printing process from OS
          1035 MiB allocation reported by mallinfo(arena+hblkhd)
         50116 MiB available memory on the node where the printing process lives
     GPU memory used/free/total (MiB): 5814 / 10466 / 16280
------------------
     ethr =  2.54E-09,  avg # of iterations =  4.0

     total cpu time spent up to now is      542.6 secs

     total energy              =   -1264.12544617 Ry
     estimated scf accuracy    <       0.00000293 Ry

     total magnetization       =     4.27 Bohr mag/cell
     absolute magnetization    =     4.91 Bohr mag/cell
[tb_dev] Currently allocated     1.76E+01 Mbytes, locked:    0 /   9
[tb_pin] Currently allocated     0.00E+00 Mbytes, locked:    0 /   0

     iteration # 30     ecut=    60.00 Ry     beta= 0.20
     Davidson diagonalization with overlap

---- Real-time Memory Report at c_bands before calling an iterative solver
          6091 MiB given to the printing process from OS
          1046 MiB allocation reported by mallinfo(arena+hblkhd)
         50102 MiB available memory on the node where the printing process lives
     GPU memory used/free/total (MiB): 5814 / 10466 / 16280
------------------
     ethr =  2.54E-09,  avg # of iterations =  5.1

     total cpu time spent up to now is      565.0 secs

     total energy              =   -1264.12542925 Ry
     estimated scf accuracy    <       0.00001841 Ry

     total magnetization       =     4.28 Bohr mag/cell
     absolute magnetization    =     4.92 Bohr mag/cell
[tb_dev] Currently allocated     1.76E+01 Mbytes, locked:    0 /   9
[tb_pin] Currently allocated     0.00E+00 Mbytes, locked:    0 /   0

     iteration # 31     ecut=    60.00 Ry     beta= 0.20
     Davidson diagonalization with overlap

---- Real-time Memory Report at c_bands before calling an iterative solver
          6103 MiB given to the printing process from OS
          1058 MiB allocation reported by mallinfo(arena+hblkhd)
         50091 MiB available memory on the node where the printing process lives
     GPU memory used/free/total (MiB): 5814 / 10466 / 16280
------------------
     ethr =  2.54E-09,  avg # of iterations =  5.1

     total cpu time spent up to now is      587.4 secs

     total energy              =   -1264.12552704 Ry
     estimated scf accuracy    <       0.00000180 Ry

     total magnetization       =     4.27 Bohr mag/cell
     absolute magnetization    =     4.91 Bohr mag/cell
[tb_dev] Currently allocated     1.76E+01 Mbytes, locked:    0 /   9
[tb_pin] Currently allocated     0.00E+00 Mbytes, locked:    0 /   0

     iteration # 32     ecut=    60.00 Ry     beta= 0.20
     Davidson diagonalization with overlap

---- Real-time Memory Report at c_bands before calling an iterative solver
          6114 MiB given to the printing process from OS
          1070 MiB allocation reported by mallinfo(arena+hblkhd)
         50076 MiB available memory on the node where the printing process lives
     GPU memory used/free/total (MiB): 5814 / 10466 / 16280
------------------
     ethr =  2.04E-09,  avg # of iterations =  1.0

     total cpu time spent up to now is      603.3 secs

     total energy              =   -1264.12552077 Ry
     estimated scf accuracy    <       0.00000174 Ry

     total magnetization       =     4.27 Bohr mag/cell
     absolute magnetization    =     4.91 Bohr mag/cell
[tb_dev] Currently allocated     1.76E+01 Mbytes, locked:    0 /   9
[tb_pin] Currently allocated     0.00E+00 Mbytes, locked:    0 /   0

     iteration # 33     ecut=    60.00 Ry     beta= 0.20
     Davidson diagonalization with overlap

---- Real-time Memory Report at c_bands before calling an iterative solver
          6126 MiB given to the printing process from OS
          1082 MiB allocation reported by mallinfo(arena+hblkhd)
         50067 MiB available memory on the node where the printing process lives
     GPU memory used/free/total (MiB): 5814 / 10466 / 16280
------------------
     ethr =  1.97E-09,  avg # of iterations =  2.3

     total cpu time spent up to now is      622.1 secs

     total energy              =   -1264.12552325 Ry
     estimated scf accuracy    <       0.00000214 Ry

     total magnetization       =     4.27 Bohr mag/cell
     absolute magnetization    =     4.91 Bohr mag/cell
[tb_dev] Currently allocated     1.76E+01 Mbytes, locked:    0 /   9
[tb_pin] Currently allocated     0.00E+00 Mbytes, locked:    0 /   0

     iteration # 34     ecut=    60.00 Ry     beta= 0.20
     Davidson diagonalization with overlap

---- Real-time Memory Report at c_bands before calling an iterative solver
          6146 MiB given to the printing process from OS
          1093 MiB allocation reported by mallinfo(arena+hblkhd)
         50053 MiB available memory on the node where the printing process lives
     GPU memory used/free/total (MiB): 5814 / 10466 / 16280
------------------
     ethr =  1.97E-09,  avg # of iterations =  1.0

     total cpu time spent up to now is      638.0 secs

     total energy              =   -1264.12552379 Ry
     estimated scf accuracy    <       0.00000210 Ry

     total magnetization       =     4.27 Bohr mag/cell
     absolute magnetization    =     4.91 Bohr mag/cell
[tb_dev] Currently allocated     1.76E+01 Mbytes, locked:    0 /   9
[tb_pin] Currently allocated     0.00E+00 Mbytes, locked:    0 /   0

     iteration # 35     ecut=    60.00 Ry     beta= 0.20
     Davidson diagonalization with overlap

---- Real-time Memory Report at c_bands before calling an iterative solver
          6158 MiB given to the printing process from OS
          1105 MiB allocation reported by mallinfo(arena+hblkhd)
         50044 MiB available memory on the node where the printing process lives
     GPU memory used/free/total (MiB): 5814 / 10466 / 16280
------------------
     ethr =  1.97E-09,  avg # of iterations =  2.3

     total cpu time spent up to now is      656.2 secs

     total energy              =   -1264.12547014 Ry
     estimated scf accuracy    <       0.00000171 Ry

     total magnetization       =     4.27 Bohr mag/cell
     absolute magnetization    =     4.91 Bohr mag/cell
[tb_dev] Currently allocated     1.76E+01 Mbytes, locked:    0 /   9
[tb_pin] Currently allocated     0.00E+00 Mbytes, locked:    0 /   0

     iteration # 36     ecut=    60.00 Ry     beta= 0.20
     Davidson diagonalization with overlap

---- Real-time Memory Report at c_bands before calling an iterative solver
          6170 MiB given to the printing process from OS
          1117 MiB allocation reported by mallinfo(arena+hblkhd)
         50028 MiB available memory on the node where the printing process lives
     GPU memory used/free/total (MiB): 5814 / 10466 / 16280
------------------
     ethr =  1.94E-09,  avg # of iterations =  5.1

     total cpu time spent up to now is      679.2 secs

     total energy              =   -1264.12554357 Ry
     estimated scf accuracy    <       0.00000313 Ry

     total magnetization       =     4.27 Bohr mag/cell
     absolute magnetization    =     4.91 Bohr mag/cell
[tb_dev] Currently allocated     1.76E+01 Mbytes, locked:    0 /   9
[tb_pin] Currently allocated     0.00E+00 Mbytes, locked:    0 /   0

     iteration # 37     ecut=    60.00 Ry     beta= 0.20
     Davidson diagonalization with overlap

---- Real-time Memory Report at c_bands before calling an iterative solver
          6181 MiB given to the printing process from OS
          1129 MiB allocation reported by mallinfo(arena+hblkhd)
         50020 MiB available memory on the node where the printing process lives
     GPU memory used/free/total (MiB): 5814 / 10466 / 16280
------------------
     ethr =  1.94E-09,  avg # of iterations =  1.0

     total cpu time spent up to now is      695.2 secs

     total energy              =   -1264.12552136 Ry
     estimated scf accuracy    <       0.00000334 Ry

     total magnetization       =     4.27 Bohr mag/cell
     absolute magnetization    =     4.91 Bohr mag/cell
[tb_dev] Currently allocated     1.76E+01 Mbytes, locked:    0 /   9
[tb_pin] Currently allocated     0.00E+00 Mbytes, locked:    0 /   0

     iteration # 38     ecut=    60.00 Ry     beta= 0.20
     Davidson diagonalization with overlap

---- Real-time Memory Report at c_bands before calling an iterative solver
          6193 MiB given to the printing process from OS
          1141 MiB allocation reported by mallinfo(arena+hblkhd)
         50006 MiB available memory on the node where the printing process lives
     GPU memory used/free/total (MiB): 5814 / 10466 / 16280
------------------
     ethr =  1.94E-09,  avg # of iterations =  3.4

     total cpu time spent up to now is      715.0 secs

     total energy              =   -1264.12553529 Ry
     estimated scf accuracy    <       0.00000213 Ry

     total magnetization       =     4.27 Bohr mag/cell
     absolute magnetization    =     4.91 Bohr mag/cell
[tb_dev] Currently allocated     1.76E+01 Mbytes, locked:    0 /   9
[tb_pin] Currently allocated     0.00E+00 Mbytes, locked:    0 /   0

     iteration # 39     ecut=    60.00 Ry     beta= 0.20
     Davidson diagonalization with overlap

---- Real-time Memory Report at c_bands before calling an iterative solver
          6204 MiB given to the printing process from OS
          1152 MiB allocation reported by mallinfo(arena+hblkhd)
         49995 MiB available memory on the node where the printing process lives
     GPU memory used/free/total (MiB): 5814 / 10466 / 16280
------------------
     ethr =  1.94E-09,  avg # of iterations =  3.0

     total cpu time spent up to now is      734.2 secs

     total energy              =   -1264.12551508 Ry
     estimated scf accuracy    <       0.00000267 Ry

     total magnetization       =     4.27 Bohr mag/cell
     absolute magnetization    =     4.91 Bohr mag/cell
[tb_dev] Currently allocated     1.76E+01 Mbytes, locked:    0 /   9
[tb_pin] Currently allocated     0.00E+00 Mbytes, locked:    0 /   0

     iteration # 40     ecut=    60.00 Ry     beta= 0.20
     Davidson diagonalization with overlap

---- Real-time Memory Report at c_bands before calling an iterative solver
          6216 MiB given to the printing process from OS
          1164 MiB allocation reported by mallinfo(arena+hblkhd)
         49984 MiB available memory on the node where the printing process lives
     GPU memory used/free/total (MiB): 5814 / 10466 / 16280
------------------
     ethr =  1.94E-09,  avg # of iterations =  4.0

     total cpu time spent up to now is      754.7 secs

     total energy              =   -1264.12553391 Ry
     estimated scf accuracy    <       0.00000205 Ry

     total magnetization       =     4.27 Bohr mag/cell
     absolute magnetization    =     4.91 Bohr mag/cell
[tb_dev] Currently allocated     1.76E+01 Mbytes, locked:    0 /   9
[tb_pin] Currently allocated     0.00E+00 Mbytes, locked:    0 /   0

     iteration # 41     ecut=    60.00 Ry     beta= 0.20
     Davidson diagonalization with overlap

---- Real-time Memory Report at c_bands before calling an iterative solver
          6229 MiB given to the printing process from OS
          1176 MiB allocation reported by mallinfo(arena+hblkhd)
         49973 MiB available memory on the node where the printing process lives
     GPU memory used/free/total (MiB): 5814 / 10466 / 16280
------------------
     ethr =  1.94E-09,  avg # of iterations =  1.0

     total cpu time spent up to now is      770.6 secs

     total energy              =   -1264.12552982 Ry
     estimated scf accuracy    <       0.00000201 Ry

     total magnetization       =     4.27 Bohr mag/cell
     absolute magnetization    =     4.91 Bohr mag/cell
[tb_dev] Currently allocated     1.76E+01 Mbytes, locked:    0 /   9
[tb_pin] Currently allocated     0.00E+00 Mbytes, locked:    0 /   0

     iteration # 42     ecut=    60.00 Ry     beta= 0.20
     Davidson diagonalization with overlap

---- Real-time Memory Report at c_bands before calling an iterative solver
          6240 MiB given to the printing process from OS
          1188 MiB allocation reported by mallinfo(arena+hblkhd)
         49963 MiB available memory on the node where the printing process lives
     GPU memory used/free/total (MiB): 5814 / 10466 / 16280
------------------
     ethr =  1.94E-09,  avg # of iterations =  2.0

     total cpu time spent up to now is      788.4 secs

     total energy              =   -1264.12553136 Ry
     estimated scf accuracy    <       0.00000196 Ry

     total magnetization       =     4.27 Bohr mag/cell
     absolute magnetization    =     4.91 Bohr mag/cell
[tb_dev] Currently allocated     1.76E+01 Mbytes, locked:    0 /   9
[tb_pin] Currently allocated     0.00E+00 Mbytes, locked:    0 /   0

     iteration # 43     ecut=    60.00 Ry     beta= 0.20
     Davidson diagonalization with overlap

---- Real-time Memory Report at c_bands before calling an iterative solver
          6252 MiB given to the printing process from OS
          1199 MiB allocation reported by mallinfo(arena+hblkhd)
         49948 MiB available memory on the node where the printing process lives
     GPU memory used/free/total (MiB): 5814 / 10466 / 16280
------------------
     ethr =  1.94E-09,  avg # of iterations =  2.1

     total cpu time spent up to now is      806.7 secs

     total energy              =   -1264.12553105 Ry
     estimated scf accuracy    <       0.00000181 Ry

     total magnetization       =     4.27 Bohr mag/cell
     absolute magnetization    =     4.91 Bohr mag/cell
[tb_dev] Currently allocated     1.76E+01 Mbytes, locked:    0 /   9
[tb_pin] Currently allocated     0.00E+00 Mbytes, locked:    0 /   0

     iteration # 44     ecut=    60.00 Ry     beta= 0.20
     Davidson diagonalization with overlap

---- Real-time Memory Report at c_bands before calling an iterative solver
          6271 MiB given to the printing process from OS
          1211 MiB allocation reported by mallinfo(arena+hblkhd)
         49940 MiB available memory on the node where the printing process lives
     GPU memory used/free/total (MiB): 5814 / 10466 / 16280
------------------
     ethr =  1.94E-09,  avg # of iterations =  2.0

     total cpu time spent up to now is      824.7 secs

     total energy              =   -1264.12553079 Ry
     estimated scf accuracy    <       0.00000172 Ry

     total magnetization       =     4.27 Bohr mag/cell
     absolute magnetization    =     4.91 Bohr mag/cell
[tb_dev] Currently allocated     1.76E+01 Mbytes, locked:    0 /   9
[tb_pin] Currently allocated     0.00E+00 Mbytes, locked:    0 /   0

     iteration # 45     ecut=    60.00 Ry     beta= 0.20
     Davidson diagonalization with overlap

---- Real-time Memory Report at c_bands before calling an iterative solver
          6283 MiB given to the printing process from OS
          1223 MiB allocation reported by mallinfo(arena+hblkhd)
         49926 MiB available memory on the node where the printing process lives
     GPU memory used/free/total (MiB): 5814 / 10466 / 16280
------------------
     ethr =  1.94E-09,  avg # of iterations =  3.0

     total cpu time spent up to now is      844.0 secs

     total energy              =   -1264.12553717 Ry
     estimated scf accuracy    <       0.00000164 Ry

     total magnetization       =     4.27 Bohr mag/cell
     absolute magnetization    =     4.91 Bohr mag/cell
[tb_dev] Currently allocated     1.76E+01 Mbytes, locked:    0 /   9
[tb_pin] Currently allocated     0.00E+00 Mbytes, locked:    0 /   0

     iteration # 46     ecut=    60.00 Ry     beta= 0.20
     Davidson diagonalization with overlap

---- Real-time Memory Report at c_bands before calling an iterative solver
          6294 MiB given to the printing process from OS
          1235 MiB allocation reported by mallinfo(arena+hblkhd)
         49918 MiB available memory on the node where the printing process lives
     GPU memory used/free/total (MiB): 5814 / 10466 / 16280
------------------
     ethr =  1.87E-09,  avg # of iterations =  1.3

     total cpu time spent up to now is      860.1 secs

     total energy              =   -1264.12549928 Ry
     estimated scf accuracy    <       0.00000165 Ry

     total magnetization       =     4.27 Bohr mag/cell
     absolute magnetization    =     4.91 Bohr mag/cell
[tb_dev] Currently allocated     1.76E+01 Mbytes, locked:    0 /   9
[tb_pin] Currently allocated     0.00E+00 Mbytes, locked:    0 /   0

     iteration # 47     ecut=    60.00 Ry     beta= 0.20
     Davidson diagonalization with overlap

---- Real-time Memory Report at c_bands before calling an iterative solver
          6306 MiB given to the printing process from OS
          1246 MiB allocation reported by mallinfo(arena+hblkhd)
         49901 MiB available memory on the node where the printing process lives
     GPU memory used/free/total (MiB): 5814 / 10466 / 16280
------------------
     ethr =  1.87E-09,  avg # of iterations =  4.1

     total cpu time spent up to now is      881.2 secs

     total energy              =   -1264.12545640 Ry
     estimated scf accuracy    <       0.00000178 Ry

     total magnetization       =     4.27 Bohr mag/cell
     absolute magnetization    =     4.91 Bohr mag/cell
[tb_dev] Currently allocated     1.76E+01 Mbytes, locked:    0 /   9
[tb_pin] Currently allocated     0.00E+00 Mbytes, locked:    0 /   0

     iteration # 48     ecut=    60.00 Ry     beta= 0.20
     Davidson diagonalization with overlap

---- Real-time Memory Report at c_bands before calling an iterative solver
          6319 MiB given to the printing process from OS
          1258 MiB allocation reported by mallinfo(arena+hblkhd)
         49892 MiB available memory on the node where the printing process lives
     GPU memory used/free/total (MiB): 5814 / 10466 / 16280
------------------
     ethr =  1.87E-09,  avg # of iterations =  5.2

     total cpu time spent up to now is      904.1 secs

     total energy              =   -1264.12554678 Ry
     estimated scf accuracy    <       0.00000157 Ry

     total magnetization       =     4.27 Bohr mag/cell
     absolute magnetization    =     4.91 Bohr mag/cell
[tb_dev] Currently allocated     1.76E+01 Mbytes, locked:    0 /   9
[tb_pin] Currently allocated     0.00E+00 Mbytes, locked:    0 /   0

     iteration # 49     ecut=    60.00 Ry     beta= 0.20
     Davidson diagonalization with overlap

---- Real-time Memory Report at c_bands before calling an iterative solver
          6330 MiB given to the printing process from OS
          1270 MiB allocation reported by mallinfo(arena+hblkhd)
         49878 MiB available memory on the node where the printing process lives
     GPU memory used/free/total (MiB): 5814 / 10466 / 16280
------------------
     ethr =  1.78E-09,  avg # of iterations =  3.0

     total cpu time spent up to now is      923.4 secs

     total energy              =   -1264.12549546 Ry
     estimated scf accuracy    <       0.00000165 Ry

     total magnetization       =     4.27 Bohr mag/cell
     absolute magnetization    =     4.91 Bohr mag/cell
[tb_dev] Currently allocated     1.76E+01 Mbytes, locked:    0 /   9
[tb_pin] Currently allocated     0.00E+00 Mbytes, locked:    0 /   0

     iteration # 50     ecut=    60.00 Ry     beta= 0.20
     Davidson diagonalization with overlap

---- Real-time Memory Report at c_bands before calling an iterative solver
          6342 MiB given to the printing process from OS
          1282 MiB allocation reported by mallinfo(arena+hblkhd)
         49869 MiB available memory on the node where the printing process lives
     GPU memory used/free/total (MiB): 5814 / 10466 / 16280
------------------
     ethr =  1.78E-09,  avg # of iterations =  5.1

     total cpu time spent up to now is      946.0 secs

     total energy              =   -1264.12523163 Ry
     estimated scf accuracy    <       0.00000135 Ry

     total magnetization       =     4.27 Bohr mag/cell
     absolute magnetization    =     4.91 Bohr mag/cell
[tb_dev] Currently allocated     1.76E+01 Mbytes, locked:    0 /   9
[tb_pin] Currently allocated     0.00E+00 Mbytes, locked:    0 /   0

     iteration # 51     ecut=    60.00 Ry     beta= 0.20
     Davidson diagonalization with overlap

---- Real-time Memory Report at c_bands before calling an iterative solver
          6354 MiB given to the printing process from OS
          1293 MiB allocation reported by mallinfo(arena+hblkhd)
         49855 MiB available memory on the node where the printing process lives
     GPU memory used/free/total (MiB): 5814 / 10466 / 16280
------------------
     ethr =  1.54E-09,  avg # of iterations =  6.5

     total cpu time spent up to now is      970.8 secs

     total energy              =   -1264.12559601 Ry
     estimated scf accuracy    <       0.00000599 Ry

     total magnetization       =     4.27 Bohr mag/cell
     absolute magnetization    =     4.90 Bohr mag/cell
[tb_dev] Currently allocated     1.76E+01 Mbytes, locked:    0 /   9
[tb_pin] Currently allocated     0.00E+00 Mbytes, locked:    0 /   0

     iteration # 52     ecut=    60.00 Ry     beta= 0.20
     Davidson diagonalization with overlap

---- Real-time Memory Report at c_bands before calling an iterative solver
          6365 MiB given to the printing process from OS
          1305 MiB allocation reported by mallinfo(arena+hblkhd)
         49847 MiB available memory on the node where the printing process lives
     GPU memory used/free/total (MiB): 5814 / 10466 / 16280
------------------
     ethr =  1.54E-09,  avg # of iterations =  2.0

     total cpu time spent up to now is      988.9 secs

     total energy              =   -1264.12557142 Ry
     estimated scf accuracy    <       0.00000535 Ry

     total magnetization       =     4.27 Bohr mag/cell
     absolute magnetization    =     4.91 Bohr mag/cell
[tb_dev] Currently allocated     1.76E+01 Mbytes, locked:    0 /   9
[tb_pin] Currently allocated     0.00E+00 Mbytes, locked:    0 /   0

     iteration # 53     ecut=    60.00 Ry     beta= 0.20
     Davidson diagonalization with overlap

---- Real-time Memory Report at c_bands before calling an iterative solver
          6377 MiB given to the printing process from OS
          1317 MiB allocation reported by mallinfo(arena+hblkhd)
         49833 MiB available memory on the node where the printing process lives
     GPU memory used/free/total (MiB): 5814 / 10466 / 16280
------------------
     ethr =  1.54E-09,  avg # of iterations =  4.2

     total cpu time spent up to now is     1009.7 secs

     total energy              =   -1264.12552086 Ry
     estimated scf accuracy    <       0.00000284 Ry

     total magnetization       =     4.27 Bohr mag/cell
     absolute magnetization    =     4.91 Bohr mag/cell
[tb_dev] Currently allocated     1.76E+01 Mbytes, locked:    0 /   9
[tb_pin] Currently allocated     0.00E+00 Mbytes, locked:    0 /   0

     iteration # 54     ecut=    60.00 Ry     beta= 0.20
     Davidson diagonalization with overlap

---- Real-time Memory Report at c_bands before calling an iterative solver
          6389 MiB given to the printing process from OS
          1329 MiB allocation reported by mallinfo(arena+hblkhd)
         49819 MiB available memory on the node where the printing process lives
     GPU memory used/free/total (MiB): 5814 / 10466 / 16280
------------------
     ethr =  1.54E-09,  avg # of iterations =  5.1

     total cpu time spent up to now is     1032.0 secs

     total energy              =   -1264.12549659 Ry
     estimated scf accuracy    <       0.00000153 Ry

     total magnetization       =     4.27 Bohr mag/cell
     absolute magnetization    =     4.91 Bohr mag/cell
[tb_dev] Currently allocated     1.76E+01 Mbytes, locked:    0 /   9
[tb_pin] Currently allocated     0.00E+00 Mbytes, locked:    0 /   0

     iteration # 55     ecut=    60.00 Ry     beta= 0.20
     Davidson diagonalization with overlap

---- Real-time Memory Report at c_bands before calling an iterative solver
          6401 MiB given to the printing process from OS
          1341 MiB allocation reported by mallinfo(arena+hblkhd)
         49811 MiB available memory on the node where the printing process lives
     GPU memory used/free/total (MiB): 5814 / 10466 / 16280
------------------
     ethr =  1.54E-09,  avg # of iterations =  5.1

     total cpu time spent up to now is     1054.3 secs

     total energy              =   -1264.12547487 Ry
     estimated scf accuracy    <       0.00000150 Ry

     total magnetization       =     4.27 Bohr mag/cell
     absolute magnetization    =     4.91 Bohr mag/cell
[tb_dev] Currently allocated     1.76E+01 Mbytes, locked:    0 /   9
[tb_pin] Currently allocated     0.00E+00 Mbytes, locked:    0 /   0

     iteration # 56     ecut=    60.00 Ry     beta= 0.20
     Davidson diagonalization with overlap

---- Real-time Memory Report at c_bands before calling an iterative solver
          6420 MiB given to the printing process from OS
          1352 MiB allocation reported by mallinfo(arena+hblkhd)
         49795 MiB available memory on the node where the printing process lives
     GPU memory used/free/total (MiB): 5814 / 10466 / 16280
------------------
     ethr =  1.54E-09,  avg # of iterations =  5.1

     total cpu time spent up to now is     1077.1 secs

     total energy              =   -1264.12510395 Ry
     estimated scf accuracy    <       0.00000276 Ry

     total magnetization       =     4.27 Bohr mag/cell
     absolute magnetization    =     4.91 Bohr mag/cell
[tb_dev] Currently allocated     1.76E+01 Mbytes, locked:    0 /   9
[tb_pin] Currently allocated     0.00E+00 Mbytes, locked:    0 /   0

     iteration # 57     ecut=    60.00 Ry     beta= 0.20
     Davidson diagonalization with overlap

---- Real-time Memory Report at c_bands before calling an iterative solver
          6432 MiB given to the printing process from OS
          1364 MiB allocation reported by mallinfo(arena+hblkhd)
         49785 MiB available memory on the node where the printing process lives
     GPU memory used/free/total (MiB): 5814 / 10466 / 16280
------------------
     ethr =  1.54E-09,  avg # of iterations =  6.7

     total cpu time spent up to now is     1102.0 secs

     total energy              =   -1264.12468962 Ry
     estimated scf accuracy    <       0.00000286 Ry

     total magnetization       =     4.27 Bohr mag/cell
     absolute magnetization    =     4.90 Bohr mag/cell
[tb_dev] Currently allocated     1.76E+01 Mbytes, locked:    0 /   9
[tb_pin] Currently allocated     0.00E+00 Mbytes, locked:    0 /   0

     iteration # 58     ecut=    60.00 Ry     beta= 0.20
     Davidson diagonalization with overlap

---- Real-time Memory Report at c_bands before calling an iterative solver
          6443 MiB given to the printing process from OS
          1376 MiB allocation reported by mallinfo(arena+hblkhd)
         49774 MiB available memory on the node where the printing process lives
     GPU memory used/free/total (MiB): 5814 / 10466 / 16280
------------------
     ethr =  1.54E-09,  avg # of iterations =  7.4

     total cpu time spent up to now is     1128.0 secs

     total energy              =   -1264.12534360 Ry
     estimated scf accuracy    <       0.00000337 Ry

     total magnetization       =     4.27 Bohr mag/cell
     absolute magnetization    =     4.91 Bohr mag/cell
[tb_dev] Currently allocated     1.76E+01 Mbytes, locked:    0 /   9
[tb_pin] Currently allocated     0.00E+00 Mbytes, locked:    0 /   0

     iteration # 59     ecut=    60.00 Ry     beta= 0.20
     Davidson diagonalization with overlap

---- Real-time Memory Report at c_bands before calling an iterative solver
          6455 MiB given to the printing process from OS
          1388 MiB allocation reported by mallinfo(arena+hblkhd)
         49763 MiB available memory on the node where the printing process lives
     GPU memory used/free/total (MiB): 5814 / 10466 / 16280
------------------
     ethr =  1.54E-09,  avg # of iterations =  5.7

     total cpu time spent up to now is     1151.9 secs

     total energy              =   -1264.12401498 Ry
     estimated scf accuracy    <       0.00000258 Ry

     total magnetization       =     4.27 Bohr mag/cell
     absolute magnetization    =     4.91 Bohr mag/cell
[tb_dev] Currently allocated     1.76E+01 Mbytes, locked:    0 /   9
[tb_pin] Currently allocated     0.00E+00 Mbytes, locked:    0 /   0

     iteration # 60     ecut=    60.00 Ry     beta= 0.20
     Davidson diagonalization with overlap

---- Real-time Memory Report at c_bands before calling an iterative solver
          6466 MiB given to the printing process from OS
          1399 MiB allocation reported by mallinfo(arena+hblkhd)
         49748 MiB available memory on the node where the printing process lives
     GPU memory used/free/total (MiB): 5814 / 10466 / 16280
------------------
     ethr =  1.54E-09,  avg # of iterations =  8.1

     total cpu time spent up to now is     1179.2 secs

     total energy              =   -1264.12560575 Ry
     estimated scf accuracy    <       0.00004630 Ry

     total magnetization       =     4.27 Bohr mag/cell
     absolute magnetization    =     4.90 Bohr mag/cell
[tb_dev] Currently allocated     1.76E+01 Mbytes, locked:    0 /   9
[tb_pin] Currently allocated     0.00E+00 Mbytes, locked:    0 /   0

     iteration # 61     ecut=    60.00 Ry     beta= 0.20
     Davidson diagonalization with overlap

---- Real-time Memory Report at c_bands before calling an iterative solver
          6478 MiB given to the printing process from OS
          1411 MiB allocation reported by mallinfo(arena+hblkhd)
         49738 MiB available memory on the node where the printing process lives
     GPU memory used/free/total (MiB): 5814 / 10466 / 16280
------------------
     ethr =  1.54E-09,  avg # of iterations =  1.0

     total cpu time spent up to now is     1195.3 secs

     total energy              =   -1264.12558967 Ry
     estimated scf accuracy    <       0.00004439 Ry

     total magnetization       =     4.27 Bohr mag/cell
     absolute magnetization    =     4.90 Bohr mag/cell
[tb_dev] Currently allocated     1.76E+01 Mbytes, locked:    0 /   9
[tb_pin] Currently allocated     0.00E+00 Mbytes, locked:    0 /   0

     iteration # 62     ecut=    60.00 Ry     beta= 0.20
     Davidson diagonalization with overlap

---- Real-time Memory Report at c_bands before calling an iterative solver
          6491 MiB given to the printing process from OS
          1423 MiB allocation reported by mallinfo(arena+hblkhd)
         49724 MiB available memory on the node where the printing process lives
     GPU memory used/free/total (MiB): 5814 / 10466 / 16280
------------------
     ethr =  1.54E-09,  avg # of iterations =  4.0

     total cpu time spent up to now is     1215.8 secs

     total energy              =   -1264.12528564 Ry
     estimated scf accuracy    <       0.00003317 Ry

     total magnetization       =     4.27 Bohr mag/cell
     absolute magnetization    =     4.90 Bohr mag/cell
[tb_dev] Currently allocated     1.76E+01 Mbytes, locked:    0 /   9
[tb_pin] Currently allocated     0.00E+00 Mbytes, locked:    0 /   0

     iteration # 63     ecut=    60.00 Ry     beta= 0.20
     Davidson diagonalization with overlap

---- Real-time Memory Report at c_bands before calling an iterative solver
          6503 MiB given to the printing process from OS
          1435 MiB allocation reported by mallinfo(arena+hblkhd)
         49716 MiB available memory on the node where the printing process lives
     GPU memory used/free/total (MiB): 5814 / 10466 / 16280
------------------
     ethr =  1.54E-09,  avg # of iterations =  6.3

     total cpu time spent up to now is     1240.4 secs

     total energy              =   -1264.12510420 Ry
     estimated scf accuracy    <       0.00000354 Ry

     total magnetization       =     4.27 Bohr mag/cell
     absolute magnetization    =     4.91 Bohr mag/cell
[tb_dev] Currently allocated     1.76E+01 Mbytes, locked:    0 /   9
[tb_pin] Currently allocated     0.00E+00 Mbytes, locked:    0 /   0

     iteration # 64     ecut=    60.00 Ry     beta= 0.20
     Davidson diagonalization with overlap

---- Real-time Memory Report at c_bands before calling an iterative solver
          6514 MiB given to the printing process from OS
          1446 MiB allocation reported by mallinfo(arena+hblkhd)
         49694 MiB available memory on the node where the printing process lives
     GPU memory used/free/total (MiB): 5814 / 10466 / 16280
------------------
     ethr =  1.54E-09,  avg # of iterations =  6.7

     total cpu time spent up to now is     1265.5 secs

     total energy              =   -1264.12545728 Ry
     estimated scf accuracy    <       0.00000180 Ry

     total magnetization       =     4.27 Bohr mag/cell
     absolute magnetization    =     4.91 Bohr mag/cell
[tb_dev] Currently allocated     1.76E+01 Mbytes, locked:    0 /   9
[tb_pin] Currently allocated     0.00E+00 Mbytes, locked:    0 /   0

     iteration # 65     ecut=    60.00 Ry     beta= 0.20
     Davidson diagonalization with overlap

---- Real-time Memory Report at c_bands before calling an iterative solver
          6533 MiB given to the printing process from OS
          1458 MiB allocation reported by mallinfo(arena+hblkhd)
         49689 MiB available memory on the node where the printing process lives
     GPU memory used/free/total (MiB): 5814 / 10466 / 16280
------------------
     ethr =  1.54E-09,  avg # of iterations =  5.2

     total cpu time spent up to now is     1288.2 secs

     total energy              =   -1264.12552198 Ry
     estimated scf accuracy    <       0.00000198 Ry

     total magnetization       =     4.27 Bohr mag/cell
     absolute magnetization    =     4.91 Bohr mag/cell
[tb_dev] Currently allocated     1.76E+01 Mbytes, locked:    0 /   9
[tb_pin] Currently allocated     0.00E+00 Mbytes, locked:    0 /   0

     iteration # 66     ecut=    60.00 Ry     beta= 0.20
     Davidson diagonalization with overlap

---- Real-time Memory Report at c_bands before calling an iterative solver
          6545 MiB given to the printing process from OS
          1470 MiB allocation reported by mallinfo(arena+hblkhd)
         49677 MiB available memory on the node where the printing process lives
     GPU memory used/free/total (MiB): 5814 / 10466 / 16280
------------------
     ethr =  1.54E-09,  avg # of iterations =  3.3

     total cpu time spent up to now is     1308.0 secs

     total energy              =   -1264.12548377 Ry
     estimated scf accuracy    <       0.00000193 Ry

     total magnetization       =     4.27 Bohr mag/cell
     absolute magnetization    =     4.91 Bohr mag/cell
[tb_dev] Currently allocated     1.76E+01 Mbytes, locked:    0 /   9
[tb_pin] Currently allocated     0.00E+00 Mbytes, locked:    0 /   0

     iteration # 67     ecut=    60.00 Ry     beta= 0.20
     Davidson diagonalization with overlap

---- Real-time Memory Report at c_bands before calling an iterative solver
          6556 MiB given to the printing process from OS
          1482 MiB allocation reported by mallinfo(arena+hblkhd)
         49668 MiB available memory on the node where the printing process lives
     GPU memory used/free/total (MiB): 5814 / 10466 / 16280
------------------
     ethr =  1.54E-09,  avg # of iterations =  5.0

     total cpu time spent up to now is     1330.3 secs

     total energy              =   -1264.12535984 Ry
     estimated scf accuracy    <       0.00000190 Ry

     total magnetization       =     4.27 Bohr mag/cell
     absolute magnetization    =     4.91 Bohr mag/cell
[tb_dev] Currently allocated     1.76E+01 Mbytes, locked:    0 /   9
[tb_pin] Currently allocated     0.00E+00 Mbytes, locked:    0 /   0

     iteration # 68     ecut=    60.00 Ry     beta= 0.20
     Davidson diagonalization with overlap

---- Real-time Memory Report at c_bands before calling an iterative solver
          6568 MiB given to the printing process from OS
          1494 MiB allocation reported by mallinfo(arena+hblkhd)
         49653 MiB available memory on the node where the printing process lives
     GPU memory used/free/total (MiB): 5814 / 10466 / 16280
------------------
     ethr =  1.54E-09,  avg # of iterations =  5.4

     total cpu time spent up to now is     1353.7 secs

     total energy              =   -1264.12359093 Ry
     estimated scf accuracy    <       0.00000262 Ry

     total magnetization       =     4.27 Bohr mag/cell
     absolute magnetization    =     4.91 Bohr mag/cell
[tb_dev] Currently allocated     1.76E+01 Mbytes, locked:    0 /   9
[tb_pin] Currently allocated     0.00E+00 Mbytes, locked:    0 /   0

     iteration # 69     ecut=    60.00 Ry     beta= 0.20
     Davidson diagonalization with overlap

---- Real-time Memory Report at c_bands before calling an iterative solver
          6581 MiB given to the printing process from OS
          1505 MiB allocation reported by mallinfo(arena+hblkhd)
         49644 MiB available memory on the node where the printing process lives
     GPU memory used/free/total (MiB): 5814 / 10466 / 16280
------------------
     ethr =  1.54E-09,  avg # of iterations =  8.2

     total cpu time spent up to now is     1381.0 secs

     total energy              =   -1264.12485724 Ry
     estimated scf accuracy    <       0.00000945 Ry

     total magnetization       =     4.27 Bohr mag/cell
     absolute magnetization    =     4.90 Bohr mag/cell
[tb_dev] Currently allocated     1.76E+01 Mbytes, locked:    0 /   9
[tb_pin] Currently allocated     0.00E+00 Mbytes, locked:    0 /   0

     iteration # 70     ecut=    60.00 Ry     beta= 0.20
     Davidson diagonalization with overlap

---- Real-time Memory Report at c_bands before calling an iterative solver
          6601 MiB given to the printing process from OS
          1517 MiB allocation reported by mallinfo(arena+hblkhd)
         49632 MiB available memory on the node where the printing process lives
     GPU memory used/free/total (MiB): 5814 / 10466 / 16280
------------------
     ethr =  1.54E-09,  avg # of iterations =  7.3

     total cpu time spent up to now is     1406.7 secs

     total energy              =   -1264.12520894 Ry
     estimated scf accuracy    <       0.00000155 Ry

     total magnetization       =     4.27 Bohr mag/cell
     absolute magnetization    =     4.91 Bohr mag/cell
[tb_dev] Currently allocated     1.76E+01 Mbytes, locked:    0 /   9
[tb_pin] Currently allocated     0.00E+00 Mbytes, locked:    0 /   0

     iteration # 71     ecut=    60.00 Ry     beta= 0.20
     Davidson diagonalization with overlap

---- Real-time Memory Report at c_bands before calling an iterative solver
          6601 MiB given to the printing process from OS
          1529 MiB allocation reported by mallinfo(arena+hblkhd)
         49620 MiB available memory on the node where the printing process lives
     GPU memory used/free/total (MiB): 5814 / 10466 / 16280
------------------
     ethr =  1.54E-09,  avg # of iterations =  6.3

     total cpu time spent up to now is     1431.2 secs

     total energy              =   -1264.12526410 Ry
     estimated scf accuracy    <       0.00000645 Ry

     total magnetization       =     4.27 Bohr mag/cell
     absolute magnetization    =     4.90 Bohr mag/cell
[tb_dev] Currently allocated     1.76E+01 Mbytes, locked:    0 /   9
[tb_pin] Currently allocated     0.00E+00 Mbytes, locked:    0 /   0

     iteration # 72     ecut=    60.00 Ry     beta= 0.20
     Davidson diagonalization with overlap

---- Real-time Memory Report at c_bands before calling an iterative solver
          6601 MiB given to the printing process from OS
          1541 MiB allocation reported by mallinfo(arena+hblkhd)
         49609 MiB available memory on the node where the printing process lives
     GPU memory used/free/total (MiB): 5814 / 10466 / 16280
------------------
     ethr =  1.54E-09,  avg # of iterations =  6.4

     total cpu time spent up to now is     1456.7 secs

     total energy              =   -1264.12512767 Ry
     estimated scf accuracy    <       0.00003156 Ry

     total magnetization       =     4.27 Bohr mag/cell
     absolute magnetization    =     4.90 Bohr mag/cell
[tb_dev] Currently allocated     1.76E+01 Mbytes, locked:    0 /   9
[tb_pin] Currently allocated     0.00E+00 Mbytes, locked:    0 /   0

     iteration # 73     ecut=    60.00 Ry     beta= 0.20
     Davidson diagonalization with overlap

---- Real-time Memory Report at c_bands before calling an iterative solver
          6601 MiB given to the printing process from OS
          1552 MiB allocation reported by mallinfo(arena+hblkhd)
         49597 MiB available memory on the node where the printing process lives
     GPU memory used/free/total (MiB): 5814 / 10466 / 16280
------------------
     ethr =  1.54E-09,  avg # of iterations =  6.8

     total cpu time spent up to now is     1481.8 secs

     total energy              =   -1264.12493351 Ry
     estimated scf accuracy    <       0.00000149 Ry

     total magnetization       =     4.27 Bohr mag/cell
     absolute magnetization    =     4.91 Bohr mag/cell
[tb_dev] Currently allocated     1.76E+01 Mbytes, locked:    0 /   9
[tb_pin] Currently allocated     0.00E+00 Mbytes, locked:    0 /   0

     iteration # 74     ecut=    60.00 Ry     beta= 0.20
     Davidson diagonalization with overlap

---- Real-time Memory Report at c_bands before calling an iterative solver
          6601 MiB given to the printing process from OS
          1564 MiB allocation reported by mallinfo(arena+hblkhd)
         49577 MiB available memory on the node where the printing process lives
     GPU memory used/free/total (MiB): 5814 / 10466 / 16280
------------------
     ethr =  1.54E-09,  avg # of iterations =  7.2

     total cpu time spent up to now is     1507.6 secs

     total energy              =   -1264.12349769 Ry
     estimated scf accuracy    <       0.00000203 Ry

     total magnetization       =     4.27 Bohr mag/cell
     absolute magnetization    =     4.91 Bohr mag/cell
[tb_dev] Currently allocated     1.76E+01 Mbytes, locked:    0 /   9
[tb_pin] Currently allocated     0.00E+00 Mbytes, locked:    0 /   0

     iteration # 75     ecut=    60.00 Ry     beta= 0.20
     Davidson diagonalization with overlap

---- Real-time Memory Report at c_bands before calling an iterative solver
          6612 MiB given to the printing process from OS
          1576 MiB allocation reported by mallinfo(arena+hblkhd)
         49567 MiB available memory on the node where the printing process lives
     GPU memory used/free/total (MiB): 5814 / 10466 / 16280
------------------
     ethr =  1.54E-09,  avg # of iterations =  8.2

     total cpu time spent up to now is     1535.3 secs

     total energy              =   -1264.12553931 Ry
     estimated scf accuracy    <       0.00002565 Ry

     total magnetization       =     4.27 Bohr mag/cell
     absolute magnetization    =     4.90 Bohr mag/cell
[tb_dev] Currently allocated     1.76E+01 Mbytes, locked:    0 /   9
[tb_pin] Currently allocated     0.00E+00 Mbytes, locked:    0 /   0

     iteration # 76     ecut=    60.00 Ry     beta= 0.20
     Davidson diagonalization with overlap

---- Real-time Memory Report at c_bands before calling an iterative solver
          6626 MiB given to the printing process from OS
          1588 MiB allocation reported by mallinfo(arena+hblkhd)
         49554 MiB available memory on the node where the printing process lives
     GPU memory used/free/total (MiB): 5814 / 10466 / 16280
------------------
     ethr =  1.54E-09,  avg # of iterations =  5.1

     total cpu time spent up to now is     1557.9 secs

     total energy              =   -1264.12548960 Ry
     estimated scf accuracy    <       0.00005401 Ry

     total magnetization       =     4.27 Bohr mag/cell
     absolute magnetization    =     4.90 Bohr mag/cell
[tb_dev] Currently allocated     1.76E+01 Mbytes, locked:    0 /   9
[tb_pin] Currently allocated     0.00E+00 Mbytes, locked:    0 /   0

     iteration # 77     ecut=    60.00 Ry     beta= 0.20
     Davidson diagonalization with overlap

---- Real-time Memory Report at c_bands before calling an iterative solver
          6637 MiB given to the printing process from OS
          1599 MiB allocation reported by mallinfo(arena+hblkhd)
         49545 MiB available memory on the node where the printing process lives
     GPU memory used/free/total (MiB): 5814 / 10466 / 16280
------------------
     ethr =  1.54E-09,  avg # of iterations =  5.3

     total cpu time spent up to now is     1581.4 secs

     total energy              =   -1264.12560445 Ry
     estimated scf accuracy    <       0.00002160 Ry

     total magnetization       =     4.27 Bohr mag/cell
     absolute magnetization    =     4.90 Bohr mag/cell
[tb_dev] Currently allocated     1.76E+01 Mbytes, locked:    0 /   9
[tb_pin] Currently allocated     0.00E+00 Mbytes, locked:    0 /   0

     iteration # 78     ecut=    60.00 Ry     beta= 0.20
     Davidson diagonalization with overlap

---- Real-time Memory Report at c_bands before calling an iterative solver
          6648 MiB given to the printing process from OS
          1611 MiB allocation reported by mallinfo(arena+hblkhd)
         49535 MiB available memory on the node where the printing process lives
     GPU memory used/free/total (MiB): 5814 / 10466 / 16280
------------------
     ethr =  1.54E-09,  avg # of iterations =  3.6

     total cpu time spent up to now is     1601.3 secs

     total energy              =   -1264.12513096 Ry
     estimated scf accuracy    <       0.00002441 Ry

     total magnetization       =     4.27 Bohr mag/cell
     absolute magnetization    =     4.90 Bohr mag/cell
[tb_dev] Currently allocated     1.76E+01 Mbytes, locked:    0 /   9
[tb_pin] Currently allocated     0.00E+00 Mbytes, locked:    0 /   0

     iteration # 79     ecut=    60.00 Ry     beta= 0.20
     Davidson diagonalization with overlap

---- Real-time Memory Report at c_bands before calling an iterative solver
          6660 MiB given to the printing process from OS
          1623 MiB allocation reported by mallinfo(arena+hblkhd)
         49522 MiB available memory on the node where the printing process lives
     GPU memory used/free/total (MiB): 5814 / 10466 / 16280
------------------
     ethr =  1.54E-09,  avg # of iterations =  6.9

     total cpu time spent up to now is     1626.4 secs

     total energy              =   -1264.12542090 Ry
     estimated scf accuracy    <       0.00000249 Ry

     total magnetization       =     4.27 Bohr mag/cell
     absolute magnetization    =     4.90 Bohr mag/cell
[tb_dev] Currently allocated     1.76E+01 Mbytes, locked:    0 /   9
[tb_pin] Currently allocated     0.00E+00 Mbytes, locked:    0 /   0

     iteration # 80     ecut=    60.00 Ry     beta= 0.20
     Davidson diagonalization with overlap

---- Real-time Memory Report at c_bands before calling an iterative solver
          6671 MiB given to the printing process from OS
          1635 MiB allocation reported by mallinfo(arena+hblkhd)
         49514 MiB available memory on the node where the printing process lives
     GPU memory used/free/total (MiB): 5814 / 10466 / 16280
------------------
     ethr =  1.54E-09,  avg # of iterations =  5.6

     total cpu time spent up to now is     1650.0 secs

     total energy              =   -1264.12510350 Ry
     estimated scf accuracy    <       0.00000548 Ry

     total magnetization       =     4.27 Bohr mag/cell
     absolute magnetization    =     4.90 Bohr mag/cell

     End of self-consistent calculation

     convergence NOT achieved after  80 iterations: stopping

     Writing config to output data dir ./out/aiida.save/
 
     init_run     :     43.86s CPU      8.12s WALL (       1 calls)
     electrons    :   3517.44s CPU   1641.41s WALL (       1 calls)

     Called by init_run:
     wfcinit      :      0.53s CPU      0.53s WALL (       1 calls)
                                        0.53s GPU  (       1 calls)
     potinit      :     26.74s CPU      2.74s WALL (       1 calls)
     hinit0       :      9.33s CPU      3.38s WALL (       1 calls)

     Called by electrons:
     c_bands      :   1114.60s CPU   1193.90s WALL (      80 calls)
     sum_band     :    236.60s CPU    244.24s WALL (      80 calls)
     v_of_rho     :     74.17s CPU      9.51s WALL (      81 calls)
     v_h          :     14.80s CPU      1.40s WALL (      81 calls)
     v_xc         :     59.36s CPU      8.11s WALL (      81 calls)
     newd         :    174.76s CPU     17.38s WALL (      81 calls)
                                       17.38s GPU  (      81 calls)
     PAW_pot      :   1770.85s CPU    160.51s WALL (      81 calls)
     mix_rho      :    137.09s CPU     13.85s WALL (      80 calls)

     Called by c_bands:
     init_us_2    :     29.51s CPU     40.06s WALL (   21120 calls)
     init_us_2:gp :     29.08s CPU     39.65s WALL (   21120 calls)
     cegterg      :    907.34s CPU    952.50s WALL (   10560 calls)

     Called by sum_band:
     sum_band:wei :      0.91s CPU      0.91s WALL (      80 calls)
                                        0.91s GPU  (      80 calls)
     sum_band:loo :    211.25s CPU    218.70s WALL (      80 calls)
                                      218.71s GPU  (      80 calls)
     sum_band:buf :     87.35s CPU     88.30s WALL (   10560 calls)
                                       88.22s GPU  (   10560 calls)
     sum_band:ini :     14.42s CPU     16.70s WALL (   10560 calls)
                                       16.63s GPU  (   10560 calls)
     sum_band:cal :      0.46s CPU      8.88s WALL (   10560 calls)
                                        7.23s GPU  (   10560 calls)
     sum_band:bec :      2.83s CPU      3.00s WALL (   10560 calls)
                                        2.93s GPU  (   10560 calls)
     addusdens    :     15.42s CPU     15.58s WALL (      80 calls)
                                       15.58s GPU  (      80 calls)
     addusd:skk   :      0.05s CPU      0.05s WALL (     160 calls)
                                        0.05s GPU  (     160 calls)

     Called by *egterg:
     cdiaghg      :    193.75s CPU    224.80s WALL (   50735 calls)
                                      224.45s GPU  (   50735 calls)
     cegterg:over :     28.50s CPU     29.35s WALL (   40307 calls)
     cegterg:upda :     27.10s CPU     28.93s WALL (   40307 calls)
     cegterg:last :     22.16s CPU     22.80s WALL (   21496 calls)
     h_psi        :    570.55s CPU    580.30s WALL (   50867 calls)
                                      578.88s GPU  (   50867 calls)
     s_psi        :      8.47s CPU     30.87s WALL (   50867 calls)
                                       27.75s GPU  (   50867 calls)
     g_psi        :      0.29s CPU      3.65s WALL (   40307 calls)
                                        3.39s GPU  (   40307 calls)

     Called by h_psi:
     h_psi:calbec :      1.87s CPU     28.08s WALL (   50867 calls)
                                       27.76s GPU  (   50867 calls)
     vloc_psi     :    505.24s CPU    513.60s WALL (   50867 calls)
                                      513.27s GPU  (   50867 calls)
     add_vuspsi   :     10.58s CPU     31.15s WALL (   50867 calls)
                                       30.83s GPU  (   50867 calls)

     General routines
     calbec       :      1.76s CPU      1.82s WALL (   61427 calls)
     fft          :      4.48s CPU      1.16s WALL (    2023 calls)
                                        0.87s GPU  (    1861 calls)
     ffts         :      0.27s CPU      0.12s WALL (     322 calls)
                                        0.03s GPU  (     160 calls)
     fftw         :      5.66s CPU    429.19s WALL (  288914 calls)
                                      426.33s GPU  (  288914 calls)
     interpolate  :     17.59s CPU      1.55s WALL (     162 calls)
     davcio       :      0.17s CPU      4.79s WALL (     282 calls)
 
     Parallel routines

     PAW routines
     PAW_pot      :   1770.85s CPU    160.51s WALL (      81 calls)
     PAW_symme    :      0.39s CPU      0.06s WALL (     160 calls)
 
     PWSCF        :  59m24.50s CPU  27m33.77s WALL

 
   This run was terminated on:  18:38: 7  23Oct2023            

=------------------------------------------------------------------------------=
   JOB DONE.
=------------------------------------------------------------------------------=
