
     Program PWSCF v.7.2 starts on 22Oct2023 at 17:45:18 

     This program is part of the open-source Quantum ESPRESSO suite
     for quantum simulation of materials; please cite
         "P. Giannozzi et al., J. Phys.:Condens. Matter 21 395502 (2009);
         "P. Giannozzi et al., J. Phys.:Condens. Matter 29 465901 (2017);
         "P. Giannozzi et al., J. Chem. Phys. 152 154105 (2020);
          URL http://www.quantum-espresso.org", 
     in publications or presentations arising from this work. More details at
     http://www.quantum-espresso.org/quote

     Parallel version (MPI & OpenMP), running on      12 processor cores
     Number of MPI processes:                 1
     Threads/MPI process:                    12

     MPI processes distributed on     1 nodes
     60339 MiB available memory on the printing compute node when the environment starts
 
     Reading input from aiida.in

     Current dimensions of program PWSCF are:
     Max number of different atomic species (ntypx) = 10
     Max number of k-points (npk) =  40000
     Max angular momentum in pseudopotentials (lmaxx) =  4
     file O.pbesol-n-kjpaw_psl.0.1.UPF: wavefunction(s)  2P renormalized
     Message from routine setup:
     using ibrav=0 with symmetry is DISCOURAGED, use correct ibrav instead
 
     Subspace diagonalization in iterative solution of the eigenvalue problem:
     a serial algorithm will be used

 
     G-vector sticks info
     --------------------
     sticks:   dense  smooth     PW     G-vecs:    dense   smooth      PW
     Sum        6157    2053    583               318539    61335    9377
 
     Using Slab Decomposition
 


     bravais-lattice index     =            0
     lattice parameter (alat)  =      10.6974  a.u.
     unit-cell volume          =     865.6020 (a.u.)^3
     number of atoms/cell      =           10
     number of atomic types    =            4
     number of electrons       =        85.00
     number of Kohn-Sham states=           52
     kinetic-energy cutoff     =      65.0000  Ry
     charge density cutoff     =     780.0000  Ry
     scf convergence threshold =      2.0E-09
     mixing beta               =       0.4000
     number of iterations used =            8  plain     mixing
     Exchange-correlation= SLA  PW   PSX  PSC
                           (   1   4  10   8   0   0   0)

     GPU acceleration is ACTIVE.


     GPU used by master process:

        Device Number: 0
        Device name: Tesla P100-PCIE-16GB
        Compute capability : 60
        Ratio of single to double precision performance  : 2
        Memory Clock Rate (KHz): 715000
        Memory Bus Width (bits): 4096
        Peak Memory Bandwidth (GB/s): 732.16

     celldm(1)=  10.697388  celldm(2)=   0.000000  celldm(3)=   0.000000
     celldm(4)=   0.000000  celldm(5)=   0.000000  celldm(6)=   0.000000

     crystal axes: (cart. coord. in units of alat)
               a(1) = (   0.000000   0.707107   0.707107 )  
               a(2) = (   0.707107   0.000000   0.707107 )  
               a(3) = (   0.707107   0.707107   0.000000 )  

     reciprocal axes: (cart. coord. in units 2 pi/alat)
               b(1) = ( -0.707107  0.707107  0.707107 )  
               b(2) = (  0.707107 -0.707107  0.707107 )  
               b(3) = (  0.707107  0.707107 -0.707107 )  


     PseudoPot. # 1 for Mn read from file:
     ./pseudo/mn_pbesol_v1.5.uspp.F.UPF
     MD5 check sum: 0716d5f563e6e95a34f9080f4c78c109
     Pseudo is Ultrasoft + core correction, Zval = 15.0
     Generated by new atomic code, or converted to UPF format
     Using radial grid of  859 points,  6 beta functions with: 
                l(1) =   0
                l(2) =   0
                l(3) =   1
                l(4) =   1
                l(5) =   2
                l(6) =   2
     Q(r) pseudized with  8 coefficients,  rinner =    0.950   0.950   0.950
                                                       0.950   0.950

     PseudoPot. # 2 for Mo read from file:
     ./pseudo/Mo_ONCV_PBEsol-1.0.upf
     MD5 check sum: 5193ba6a20874d27c2ef80314d1b3445
     Pseudo is Norm-conserving, Zval = 14.0
     Generated using ONCVPSP code by D. R. Hamann
     Using radial grid of 1508 points,  6 beta functions with: 
                l(1) =   0
                l(2) =   0
                l(3) =   1
                l(4) =   1
                l(5) =   2
                l(6) =   2

     PseudoPot. # 3 for O  read from file:
     ./pseudo/O.pbesol-n-kjpaw_psl.0.1.UPF
     MD5 check sum: 81d73d1479e654e5638b0319f0d6c2c7
     Pseudo is Projector augmented-wave + core cor, Zval =  6.0
     Generated using "atomic" code by A. Dal Corso  v.6.0 svn rev. 13079
     Shape of augmentation charge: BESSEL
     Using radial grid of 1095 points,  4 beta functions with: 
                l(1) =   0
                l(2) =   0
                l(3) =   1
                l(4) =   1
     Q(r) pseudized with 0 coefficients 


     PseudoPot. # 4 for Sr read from file:
     ./pseudo/sr_pbesol_v1.uspp.F.UPF
     MD5 check sum: 635bff1625df5273dba4129a01ed8c82
     Pseudo is Ultrasoft + core correction, Zval = 10.0
     Generated by new atomic code, or converted to UPF format
     Using radial grid of  883 points,  6 beta functions with: 
                l(1) =   0
                l(2) =   0
                l(3) =   1
                l(4) =   1
                l(5) =   2
                l(6) =   2
     Q(r) pseudized with  6 coefficients,  rinner =    1.400   1.400   1.400
                                                       1.400   1.400

     atomic species   valence    mass     pseudopotential
        Mn            15.00    54.93805     Mn( 1.00)
        Mo            14.00    95.96000     Mo( 1.00)
        O              6.00    15.99940     O ( 1.00)
        Sr            10.00    87.62000     Sr( 1.00)

     Starting magnetic structure 
     atomic species   magnetization
        Mn           0.333
        Mo           0.357
        O            0.100
        Sr           0.100

     48 Sym. Ops., with inversion, found


                                    s                        frac. trans.

      isym =  1     identity                                     

 cryst.   s( 1) = (     1          0          0      )
                  (     0          1          0      )
                  (     0          0          1      )

 cart.    s( 1) = (  1.0000000 -0.0000000  0.0000000 )
                  ( -0.0000000  1.0000000  0.0000000 )
                  ( -0.0000000  0.0000000  1.0000000 )


      isym =  2     180 deg rotation - cart. axis [0,0,1]        

 cryst.   s( 2) = (     0          1         -1      )
                  (     1          0         -1      )
                  (     0          0         -1      )

 cart.    s( 2) = ( -1.0000000  0.0000000  0.0000000 )
                  (  0.0000000 -1.0000000  0.0000000 )
                  (  0.0000000 -0.0000000  1.0000000 )


      isym =  3     180 deg rotation - cart. axis [0,1,0]        

 cryst.   s( 3) = (     0         -1          1      )
                  (     0         -1          0      )
                  (     1         -1          0      )

 cart.    s( 3) = ( -1.0000000 -0.0000000 -0.0000000 )
                  (  0.0000000  1.0000000 -0.0000000 )
                  (  0.0000000  0.0000000 -1.0000000 )


      isym =  4     180 deg rotation - cart. axis [1,0,0]        

 cryst.   s( 4) = (    -1          0          0      )
                  (    -1          0          1      )
                  (    -1          1          0      )

 cart.    s( 4) = (  1.0000000  0.0000000 -0.0000000 )
                  ( -0.0000000 -1.0000000 -0.0000000 )
                  ( -0.0000000 -0.0000000 -1.0000000 )


      isym =  5     180 deg rotation - cart. axis [1,1,0]        

 cryst.   s( 5) = (    -1          0          1      )
                  (     0         -1          1      )
                  (     0          0          1      )

 cart.    s( 5) = ( -0.0000000  1.0000000 -0.0000000 )
                  (  1.0000000 -0.0000000 -0.0000000 )
                  (  0.0000000 -0.0000000 -1.0000000 )


      isym =  6     180 deg rotation - cart. axis [1,-1,0]       

 cryst.   s( 6) = (     0         -1          0      )
                  (    -1          0          0      )
                  (     0          0         -1      )

 cart.    s( 6) = (  0.0000000 -1.0000000 -0.0000000 )
                  ( -1.0000000  0.0000000 -0.0000000 )
                  ( -0.0000000  0.0000000 -1.0000000 )


      isym =  7      90 deg rotation - cart. axis [0,0,-1]       

 cryst.   s( 7) = (     0          1          0      )
                  (     0          1         -1      )
                  (    -1          1          0      )

 cart.    s( 7) = (  0.0000000  1.0000000  0.0000000 )
                  ( -1.0000000 -0.0000000  0.0000000 )
                  ( -0.0000000 -0.0000000  1.0000000 )


      isym =  8      90 deg rotation - cart. axis [0,0,1]        

 cryst.   s( 8) = (     1          0         -1      )
                  (     1          0          0      )
                  (     1         -1          0      )

 cart.    s( 8) = ( -0.0000000 -1.0000000  0.0000000 )
                  (  1.0000000  0.0000000  0.0000000 )
                  (  0.0000000  0.0000000  1.0000000 )


      isym =  9     180 deg rotation - cart. axis [1,0,1]        

 cryst.   s( 9) = (    -1          1          0      )
                  (     0          1          0      )
                  (     0          1         -1      )

 cart.    s( 9) = (  0.0000000  0.0000000  1.0000000 )
                  (  0.0000000 -1.0000000 -0.0000000 )
                  (  1.0000000 -0.0000000 -0.0000000 )


      isym = 10     180 deg rotation - cart. axis [-1,0,1]       

 cryst.   s(10) = (     0          0         -1      )
                  (     0         -1          0      )
                  (    -1          0          0      )

 cart.    s(10) = ( -0.0000000  0.0000000 -1.0000000 )
                  ( -0.0000000 -1.0000000  0.0000000 )
                  ( -1.0000000 -0.0000000  0.0000000 )


      isym = 11      90 deg rotation - cart. axis [0,1,0]        

 cryst.   s(11) = (     0          0          1      )
                  (    -1          0          1      )
                  (     0         -1          1      )

 cart.    s(11) = ( -0.0000000 -0.0000000  1.0000000 )
                  ( -0.0000000  1.0000000 -0.0000000 )
                  ( -1.0000000  0.0000000 -0.0000000 )


      isym = 12      90 deg rotation - cart. axis [0,-1,0]       

 cryst.   s(12) = (     1         -1          0      )
                  (     1          0         -1      )
                  (     1          0          0      )

 cart.    s(12) = (  0.0000000 -0.0000000 -1.0000000 )
                  (  0.0000000  1.0000000  0.0000000 )
                  (  1.0000000  0.0000000  0.0000000 )


      isym = 13     180 deg rotation - cart. axis [0,1,1]        

 cryst.   s(13) = (     1          0          0      )
                  (     1         -1          0      )
                  (     1          0         -1      )

 cart.    s(13) = ( -1.0000000  0.0000000 -0.0000000 )
                  (  0.0000000  0.0000000  1.0000000 )
                  (  0.0000000  1.0000000  0.0000000 )


      isym = 14     180 deg rotation - cart. axis [0,1,-1]       

 cryst.   s(14) = (    -1          0          0      )
                  (     0          0         -1      )
                  (     0         -1          0      )

 cart.    s(14) = ( -1.0000000 -0.0000000  0.0000000 )
                  (  0.0000000 -0.0000000 -1.0000000 )
                  (  0.0000000 -1.0000000 -0.0000000 )


      isym = 15      90 deg rotation - cart. axis [-1,0,0]       

 cryst.   s(15) = (     0         -1          1      )
                  (     0          0          1      )
                  (    -1          0          1      )

 cart.    s(15) = (  1.0000000 -0.0000000 -0.0000000 )
                  ( -0.0000000 -0.0000000  1.0000000 )
                  ( -0.0000000 -1.0000000  0.0000000 )


      isym = 16      90 deg rotation - cart. axis [1,0,0]        

 cryst.   s(16) = (     0          1         -1      )
                  (    -1          1          0      )
                  (     0          1          0      )

 cart.    s(16) = (  1.0000000  0.0000000  0.0000000 )
                  ( -0.0000000  0.0000000 -1.0000000 )
                  ( -0.0000000  1.0000000 -0.0000000 )


      isym = 17     120 deg rotation - cart. axis [-1,-1,-1]     

 cryst.   s(17) = (     0          0          1      )
                  (     1          0          0      )
                  (     0          1          0      )

 cart.    s(17) = (  0.0000000  1.0000000 -0.0000000 )
                  (  0.0000000 -0.0000000  1.0000000 )
                  (  1.0000000 -0.0000000  0.0000000 )


      isym = 18     120 deg rotation - cart. axis [-1,1,1]       

 cryst.   s(18) = (     1         -1          0      )
                  (     0         -1          1      )
                  (     0         -1          0      )

 cart.    s(18) = ( -0.0000000 -1.0000000 -0.0000000 )
                  ( -0.0000000  0.0000000  1.0000000 )
                  ( -1.0000000  0.0000000  0.0000000 )


      isym = 19     120 deg rotation - cart. axis [1,1,-1]       

 cryst.   s(19) = (    -1          1          0      )
                  (    -1          0          0      )
                  (    -1          0          1      )

 cart.    s(19) = ( -0.0000000  1.0000000  0.0000000 )
                  ( -0.0000000 -0.0000000 -1.0000000 )
                  ( -1.0000000 -0.0000000 -0.0000000 )


      isym = 20     120 deg rotation - cart. axis [1,-1,1]       

 cryst.   s(20) = (     0          0         -1      )
                  (     0          1         -1      )
                  (     1          0         -1      )

 cart.    s(20) = (  0.0000000 -1.0000000  0.0000000 )
                  (  0.0000000  0.0000000 -1.0000000 )
                  (  1.0000000  0.0000000 -0.0000000 )


      isym = 21     120 deg rotation - cart. axis [1,1,1]        

 cryst.   s(21) = (     0          1          0      )
                  (     0          0          1      )
                  (     1          0          0      )

 cart.    s(21) = ( -0.0000000  0.0000000  1.0000000 )
                  (  1.0000000  0.0000000 -0.0000000 )
                  (  0.0000000  1.0000000 -0.0000000 )


      isym = 22     120 deg rotation - cart. axis [-1,1,-1]      

 cryst.   s(22) = (    -1          0          1      )
                  (    -1          1          0      )
                  (    -1          0          0      )

 cart.    s(22) = (  0.0000000 -0.0000000  1.0000000 )
                  ( -1.0000000 -0.0000000 -0.0000000 )
                  ( -0.0000000 -1.0000000 -0.0000000 )


      isym = 23     120 deg rotation - cart. axis [1,-1,-1]      

 cryst.   s(23) = (     1          0         -1      )
                  (     0          0         -1      )
                  (     0          1         -1      )

 cart.    s(23) = (  0.0000000  0.0000000 -1.0000000 )
                  ( -1.0000000  0.0000000  0.0000000 )
                  ( -0.0000000  1.0000000  0.0000000 )


      isym = 24     120 deg rotation - cart. axis [-1,-1,1]      

 cryst.   s(24) = (     0         -1          0      )
                  (     1         -1          0      )
                  (     0         -1          1      )

 cart.    s(24) = ( -0.0000000 -0.0000000 -1.0000000 )
                  (  1.0000000 -0.0000000  0.0000000 )
                  (  0.0000000 -1.0000000  0.0000000 )


      isym = 25     inversion                                    

 cryst.   s(25) = (    -1          0          0      )
                  (     0         -1          0      )
                  (     0          0         -1      )

 cart.    s(25) = ( -1.0000000  0.0000000 -0.0000000 )
                  (  0.0000000 -1.0000000 -0.0000000 )
                  (  0.0000000 -0.0000000 -1.0000000 )


      isym = 26     inv. 180 deg rotation - cart. axis [0,0,1]   

 cryst.   s(26) = (     0         -1          1      )
                  (    -1          0          1      )
                  (     0          0          1      )

 cart.    s(26) = (  1.0000000 -0.0000000 -0.0000000 )
                  ( -0.0000000  1.0000000 -0.0000000 )
                  ( -0.0000000  0.0000000 -1.0000000 )


      isym = 27     inv. 180 deg rotation - cart. axis [0,1,0]   

 cryst.   s(27) = (     0          1         -1      )
                  (     0          1          0      )
                  (    -1          1          0      )

 cart.    s(27) = (  1.0000000  0.0000000  0.0000000 )
                  ( -0.0000000 -1.0000000  0.0000000 )
                  ( -0.0000000 -0.0000000  1.0000000 )


      isym = 28     inv. 180 deg rotation - cart. axis [1,0,0]   

 cryst.   s(28) = (     1          0          0      )
                  (     1          0         -1      )
                  (     1         -1          0      )

 cart.    s(28) = ( -1.0000000 -0.0000000  0.0000000 )
                  (  0.0000000  1.0000000  0.0000000 )
                  (  0.0000000  0.0000000  1.0000000 )


      isym = 29     inv. 180 deg rotation - cart. axis [1,1,0]   

 cryst.   s(29) = (     1          0         -1      )
                  (     0          1         -1      )
                  (     0          0         -1      )

 cart.    s(29) = (  0.0000000 -1.0000000  0.0000000 )
                  ( -1.0000000  0.0000000  0.0000000 )
                  ( -0.0000000  0.0000000  1.0000000 )


      isym = 30     inv. 180 deg rotation - cart. axis [1,-1,0]  

 cryst.   s(30) = (     0          1          0      )
                  (     1          0          0      )
                  (     0          0          1      )

 cart.    s(30) = ( -0.0000000  1.0000000  0.0000000 )
                  (  1.0000000 -0.0000000  0.0000000 )
                  (  0.0000000 -0.0000000  1.0000000 )


      isym = 31     inv.  90 deg rotation - cart. axis [0,0,-1]  

 cryst.   s(31) = (     0         -1          0      )
                  (     0         -1          1      )
                  (     1         -1          0      )

 cart.    s(31) = ( -0.0000000 -1.0000000 -0.0000000 )
                  (  1.0000000  0.0000000 -0.0000000 )
                  (  0.0000000  0.0000000 -1.0000000 )


      isym = 32     inv.  90 deg rotation - cart. axis [0,0,1]   

 cryst.   s(32) = (    -1          0          1      )
                  (    -1          0          0      )
                  (    -1          1          0      )

 cart.    s(32) = (  0.0000000  1.0000000 -0.0000000 )
                  ( -1.0000000 -0.0000000 -0.0000000 )
                  ( -0.0000000 -0.0000000 -1.0000000 )


      isym = 33     inv. 180 deg rotation - cart. axis [1,0,1]   

 cryst.   s(33) = (     1         -1          0      )
                  (     0         -1          0      )
                  (     0         -1          1      )

 cart.    s(33) = ( -0.0000000 -0.0000000 -1.0000000 )
                  ( -0.0000000  1.0000000  0.0000000 )
                  ( -1.0000000  0.0000000  0.0000000 )


      isym = 34     inv. 180 deg rotation - cart. axis [-1,0,1]  

 cryst.   s(34) = (     0          0          1      )
                  (     0          1          0      )
                  (     1          0          0      )

 cart.    s(34) = (  0.0000000 -0.0000000  1.0000000 )
                  (  0.0000000  1.0000000 -0.0000000 )
                  (  1.0000000  0.0000000 -0.0000000 )


      isym = 35     inv.  90 deg rotation - cart. axis [0,1,0]   

 cryst.   s(35) = (     0          0         -1      )
                  (     1          0         -1      )
                  (     0          1         -1      )

 cart.    s(35) = (  0.0000000  0.0000000 -1.0000000 )
                  (  0.0000000 -1.0000000  0.0000000 )
                  (  1.0000000 -0.0000000  0.0000000 )


      isym = 36     inv.  90 deg rotation - cart. axis [0,-1,0]  

 cryst.   s(36) = (    -1          1          0      )
                  (    -1          0          1      )
                  (    -1          0          0      )

 cart.    s(36) = ( -0.0000000  0.0000000  1.0000000 )
                  ( -0.0000000 -1.0000000 -0.0000000 )
                  ( -1.0000000 -0.0000000 -0.0000000 )


      isym = 37     inv. 180 deg rotation - cart. axis [0,1,1]   

 cryst.   s(37) = (    -1          0          0      )
                  (    -1          1          0      )
                  (    -1          0          1      )

 cart.    s(37) = (  1.0000000 -0.0000000  0.0000000 )
                  ( -0.0000000 -0.0000000 -1.0000000 )
                  ( -0.0000000 -1.0000000 -0.0000000 )


      isym = 38     inv. 180 deg rotation - cart. axis [0,1,-1]  

 cryst.   s(38) = (     1          0          0      )
                  (     0          0          1      )
                  (     0          1          0      )

 cart.    s(38) = (  1.0000000  0.0000000 -0.0000000 )
                  ( -0.0000000  0.0000000  1.0000000 )
                  ( -0.0000000  1.0000000  0.0000000 )


      isym = 39     inv.  90 deg rotation - cart. axis [-1,0,0]  

 cryst.   s(39) = (     0          1         -1      )
                  (     0          0         -1      )
                  (     1          0         -1      )

 cart.    s(39) = ( -1.0000000  0.0000000  0.0000000 )
                  (  0.0000000  0.0000000 -1.0000000 )
                  (  0.0000000  1.0000000 -0.0000000 )


      isym = 40     inv.  90 deg rotation - cart. axis [1,0,0]   

 cryst.   s(40) = (     0         -1          1      )
                  (     1         -1          0      )
                  (     0         -1          0      )

 cart.    s(40) = ( -1.0000000 -0.0000000 -0.0000000 )
                  (  0.0000000 -0.0000000  1.0000000 )
                  (  0.0000000 -1.0000000  0.0000000 )


      isym = 41     inv. 120 deg rotation - cart. axis [-1,-1,-1]

 cryst.   s(41) = (     0          0         -1      )
                  (    -1          0          0      )
                  (     0         -1          0      )

 cart.    s(41) = ( -0.0000000 -1.0000000  0.0000000 )
                  ( -0.0000000  0.0000000 -1.0000000 )
                  ( -1.0000000  0.0000000 -0.0000000 )


      isym = 42     inv. 120 deg rotation - cart. axis [-1,1,1]  

 cryst.   s(42) = (    -1          1          0      )
                  (     0          1         -1      )
                  (     0          1          0      )

 cart.    s(42) = (  0.0000000  1.0000000  0.0000000 )
                  (  0.0000000 -0.0000000 -1.0000000 )
                  (  1.0000000 -0.0000000 -0.0000000 )


      isym = 43     inv. 120 deg rotation - cart. axis [1,1,-1]  

 cryst.   s(43) = (     1         -1          0      )
                  (     1          0          0      )
                  (     1          0         -1      )

 cart.    s(43) = (  0.0000000 -1.0000000 -0.0000000 )
                  (  0.0000000  0.0000000  1.0000000 )
                  (  1.0000000  0.0000000  0.0000000 )


      isym = 44     inv. 120 deg rotation - cart. axis [1,-1,1]  

 cryst.   s(44) = (     0          0          1      )
                  (     0         -1          1      )
                  (    -1          0          1      )

 cart.    s(44) = ( -0.0000000  1.0000000 -0.0000000 )
                  ( -0.0000000 -0.0000000  1.0000000 )
                  ( -1.0000000 -0.0000000  0.0000000 )


      isym = 45     inv. 120 deg rotation - cart. axis [1,1,1]   

 cryst.   s(45) = (     0         -1          0      )
                  (     0          0         -1      )
                  (    -1          0          0      )

 cart.    s(45) = (  0.0000000 -0.0000000 -1.0000000 )
                  ( -1.0000000 -0.0000000  0.0000000 )
                  ( -0.0000000 -1.0000000  0.0000000 )


      isym = 46     inv. 120 deg rotation - cart. axis [-1,1,-1] 

 cryst.   s(46) = (     1          0         -1      )
                  (     1         -1          0      )
                  (     1          0          0      )

 cart.    s(46) = ( -0.0000000  0.0000000 -1.0000000 )
                  (  1.0000000  0.0000000  0.0000000 )
                  (  0.0000000  1.0000000  0.0000000 )


      isym = 47     inv. 120 deg rotation - cart. axis [1,-1,-1] 

 cryst.   s(47) = (    -1          0          1      )
                  (     0          0          1      )
                  (     0         -1          1      )

 cart.    s(47) = ( -0.0000000 -0.0000000  1.0000000 )
                  (  1.0000000 -0.0000000 -0.0000000 )
                  (  0.0000000 -1.0000000 -0.0000000 )


      isym = 48     inv. 120 deg rotation - cart. axis [-1,-1,1] 

 cryst.   s(48) = (     0          1          0      )
                  (    -1          1          0      )
                  (     0          1         -1      )

 cart.    s(48) = (  0.0000000  0.0000000  1.0000000 )
                  ( -1.0000000  0.0000000 -0.0000000 )
                  ( -0.0000000  1.0000000 -0.0000000 )


   Cartesian axes

     site n.     atom                  positions (alat units)
         1           Sr  tau(   1) = (   0.3535534   0.3535534   1.0606602  )
         2           Sr  tau(   2) = (   0.3535534   1.0606602   1.0606602  )
         3           Mn  tau(   3) = (   0.0000000   0.0000000   0.0000000  )
         4           Mo  tau(   4) = (   0.7071068   0.0000000   0.0000000  )
         5           O   tau(   5) = (   1.1087434   0.0000000   0.0000000  )
         6           O   tau(   6) = (   0.7071068   0.4016367  -0.0000000  )
         7           O   tau(   7) = (  -0.0000000  -0.0000000   1.1087434  )
         8           O   tau(   8) = (   0.7071068   0.0000000   1.0125769  )
         9           O   tau(   9) = (   0.7071068   1.0125769   0.0000000  )
        10           O   tau(  10) = (   0.3054701  -0.0000000  -0.0000000  )

   Crystallographic axes

     site n.     atom                  positions (cryst. coord.)
         1           Sr  tau(   1) = (  0.7500000  0.7500000 -0.2500000  )
         2           Sr  tau(   2) = (  1.2500000  0.2500000  0.2500000  )
         3           Mn  tau(   3) = (  0.0000000  0.0000000  0.0000000  )
         4           Mo  tau(   4) = ( -0.5000000  0.5000000  0.5000000  )
         5           O   tau(   5) = ( -0.7840000  0.7840000  0.7840000  )
         6           O   tau(   6) = ( -0.2160000  0.2160000  0.7840000  )
         7           O   tau(   7) = (  0.7840000  0.7840000 -0.7840000  )
         8           O   tau(   8) = (  0.2160000  1.2160000 -0.2160000  )
         9           O   tau(   9) = (  0.2160000 -0.2160000  1.2160000  )
        10           O   tau(  10) = ( -0.2160000  0.2160000  0.2160000  )

     number of k points=    47  Marzari-Vanderbilt smearing, width (Ry)=  0.0100
                       cart. coord. in units 2pi/alat
        k(    1) = (   0.0000000   0.0000000   0.0000000), wk =   0.0010000
        k(    2) = (   0.0707107   0.0707107  -0.0707107), wk =   0.0080000
        k(    3) = (   0.1414214   0.1414214  -0.1414214), wk =   0.0080000
        k(    4) = (   0.2121320   0.2121320  -0.2121320), wk =   0.0080000
        k(    5) = (   0.2828427   0.2828427  -0.2828427), wk =   0.0080000
        k(    6) = (  -0.3535534  -0.3535534   0.3535534), wk =   0.0040000
        k(    7) = (   0.1414214  -0.0000000   0.0000000), wk =   0.0060000
        k(    8) = (   0.2121320   0.0707107  -0.0707107), wk =   0.0240000
        k(    9) = (   0.2828427   0.1414214  -0.1414214), wk =   0.0240000
        k(   10) = (   0.3535534   0.2121320  -0.2121320), wk =   0.0240000
        k(   11) = (  -0.2828427  -0.4242641   0.4242641), wk =   0.0240000
        k(   12) = (  -0.2121320  -0.3535534   0.3535534), wk =   0.0240000
        k(   13) = (  -0.1414214  -0.2828427   0.2828427), wk =   0.0240000
        k(   14) = (  -0.0707107  -0.2121320   0.2121320), wk =   0.0240000
        k(   15) = (   0.0000000  -0.1414214   0.1414214), wk =   0.0120000
        k(   16) = (   0.2828427  -0.0000000   0.0000000), wk =   0.0060000
        k(   17) = (   0.3535534   0.0707107  -0.0707107), wk =   0.0240000
        k(   18) = (   0.4242641   0.1414214  -0.1414214), wk =   0.0240000
        k(   19) = (  -0.2121320  -0.4949747   0.4949747), wk =   0.0240000
        k(   20) = (  -0.1414214  -0.4242641   0.4242641), wk =   0.0240000
        k(   21) = (  -0.0707107  -0.3535534   0.3535534), wk =   0.0240000
        k(   22) = (   0.0000000  -0.2828427   0.2828427), wk =   0.0120000
        k(   23) = (   0.4242641   0.0000000  -0.0000000), wk =   0.0060000
        k(   24) = (   0.4949747   0.0707107  -0.0707107), wk =   0.0240000
        k(   25) = (  -0.1414214  -0.5656854   0.5656854), wk =   0.0240000
        k(   26) = (  -0.0707107  -0.4949747   0.4949747), wk =   0.0240000
        k(   27) = (  -0.0000000  -0.4242641   0.4242641), wk =   0.0120000
        k(   28) = (   0.5656854  -0.0000000   0.0000000), wk =   0.0060000
        k(   29) = (  -0.0707107  -0.6363961   0.6363961), wk =   0.0240000
        k(   30) = (   0.0000000  -0.5656854   0.5656854), wk =   0.0120000
        k(   31) = (  -0.7071068   0.0000000   0.0000000), wk =   0.0030000
        k(   32) = (   0.2828427   0.1414214   0.0000000), wk =   0.0240000
        k(   33) = (   0.3535534   0.2121320  -0.0707107), wk =   0.0480000
        k(   34) = (  -0.2828427  -0.4242641   0.5656854), wk =   0.0480000
        k(   35) = (  -0.2121320  -0.3535534   0.4949747), wk =   0.0240000
        k(   36) = (   0.4242641   0.1414214  -0.0000000), wk =   0.0240000
        k(   37) = (  -0.2121320  -0.4949747   0.6363961), wk =   0.0480000
        k(   38) = (  -0.1414214  -0.4242641   0.5656854), wk =   0.0480000
        k(   39) = (  -0.0707107  -0.3535534   0.4949747), wk =   0.0480000
        k(   40) = (   0.0000000  -0.2828427   0.4242641), wk =   0.0240000
        k(   41) = (  -0.1414214  -0.5656854   0.7071068), wk =   0.0240000
        k(   42) = (  -0.0707107  -0.4949747   0.6363961), wk =   0.0480000
        k(   43) = (  -0.0000000  -0.4242641   0.5656854), wk =   0.0240000
        k(   44) = (  -0.7071068   0.1414214   0.0000000), wk =   0.0120000
        k(   45) = (  -0.1414214  -0.4242641   0.7071068), wk =   0.0240000
        k(   46) = (  -0.0707107  -0.3535534   0.6363961), wk =   0.0240000
        k(   47) = (  -0.7071068   0.2828427   0.0000000), wk =   0.0120000

                       cryst. coord.
        k(    1) = (   0.0000000   0.0000000   0.0000000), wk =   0.0010000
        k(    2) = (  -0.0000000  -0.0000000   0.1000000), wk =   0.0080000
        k(    3) = (  -0.0000000  -0.0000000   0.2000000), wk =   0.0080000
        k(    4) = (   0.0000000   0.0000000   0.3000000), wk =   0.0080000
        k(    5) = (  -0.0000000  -0.0000000   0.4000000), wk =   0.0080000
        k(    6) = (  -0.0000000  -0.0000000  -0.5000000), wk =   0.0040000
        k(    7) = (  -0.0000000   0.1000000   0.1000000), wk =   0.0060000
        k(    8) = (  -0.0000000   0.1000000   0.2000000), wk =   0.0240000
        k(    9) = (  -0.0000000   0.1000000   0.3000000), wk =   0.0240000
        k(   10) = (  -0.0000000   0.1000000   0.4000000), wk =   0.0240000
        k(   11) = (   0.0000000   0.1000000  -0.5000000), wk =   0.0240000
        k(   12) = (  -0.0000000   0.1000000  -0.4000000), wk =   0.0240000
        k(   13) = (   0.0000000   0.1000000  -0.3000000), wk =   0.0240000
        k(   14) = (  -0.0000000   0.1000000  -0.2000000), wk =   0.0240000
        k(   15) = (   0.0000000   0.1000000  -0.1000000), wk =   0.0120000
        k(   16) = (  -0.0000000   0.2000000   0.2000000), wk =   0.0060000
        k(   17) = (   0.0000000   0.2000000   0.3000000), wk =   0.0240000
        k(   18) = (  -0.0000000   0.2000000   0.4000000), wk =   0.0240000
        k(   19) = (   0.0000000   0.2000000  -0.5000000), wk =   0.0240000
        k(   20) = (   0.0000000   0.2000000  -0.4000000), wk =   0.0240000
        k(   21) = (   0.0000000   0.2000000  -0.3000000), wk =   0.0240000
        k(   22) = (   0.0000000   0.2000000  -0.2000000), wk =   0.0120000
        k(   23) = (   0.0000000   0.3000000   0.3000000), wk =   0.0060000
        k(   24) = (  -0.0000000   0.3000000   0.4000000), wk =   0.0240000
        k(   25) = (   0.0000000   0.3000000  -0.5000000), wk =   0.0240000
        k(   26) = (   0.0000000   0.3000000  -0.4000000), wk =   0.0240000
        k(   27) = (   0.0000000   0.3000000  -0.3000000), wk =   0.0120000
        k(   28) = (  -0.0000000   0.4000000   0.4000000), wk =   0.0060000
        k(   29) = (   0.0000000   0.4000000  -0.5000000), wk =   0.0240000
        k(   30) = (   0.0000000   0.4000000  -0.4000000), wk =   0.0120000
        k(   31) = (   0.0000000  -0.5000000  -0.5000000), wk =   0.0030000
        k(   32) = (   0.1000000   0.2000000   0.3000000), wk =   0.0240000
        k(   33) = (   0.1000000   0.2000000   0.4000000), wk =   0.0480000
        k(   34) = (   0.1000000   0.2000000  -0.5000000), wk =   0.0480000
        k(   35) = (   0.1000000   0.2000000  -0.4000000), wk =   0.0240000
        k(   36) = (   0.1000000   0.3000000   0.4000000), wk =   0.0240000
        k(   37) = (   0.1000000   0.3000000  -0.5000000), wk =   0.0480000
        k(   38) = (   0.1000000   0.3000000  -0.4000000), wk =   0.0480000
        k(   39) = (   0.1000000   0.3000000  -0.3000000), wk =   0.0480000
        k(   40) = (   0.1000000   0.3000000  -0.2000000), wk =   0.0240000
        k(   41) = (   0.1000000   0.4000000  -0.5000000), wk =   0.0240000
        k(   42) = (   0.1000000   0.4000000  -0.4000000), wk =   0.0480000
        k(   43) = (   0.1000000   0.4000000  -0.3000000), wk =   0.0240000
        k(   44) = (   0.1000000  -0.5000000  -0.4000000), wk =   0.0120000
        k(   45) = (   0.2000000   0.4000000  -0.4000000), wk =   0.0240000
        k(   46) = (   0.2000000   0.4000000  -0.3000000), wk =   0.0240000
        k(   47) = (   0.2000000  -0.5000000  -0.3000000), wk =   0.0120000

     Dense  grid:   318539 G-vectors     FFT dimensions: (  96,  96,  96)

     Smooth grid:    61335 G-vectors     FFT dimensions: (  60,  60,  60)

     Dynamical RAM for                 wfc:       6.08 MB

     Dynamical RAM for     wfc (w. buffer):     577.40 MB

     Dynamical RAM for           str. fact:      19.44 MB

     Dynamical RAM for           local pot:       0.00 MB

     Dynamical RAM for          nlocal pot:      14.03 MB

     Dynamical RAM for                qrad:       8.96 MB

     Dynamical RAM for          rho,v,vnew:      69.66 MB

     Dynamical RAM for               rhoin:      23.22 MB

     Dynamical RAM for            rho*nmix:     155.54 MB

     Dynamical RAM for           G-vectors:      18.69 MB

     Dynamical RAM for          h,s,v(r/c):       0.50 MB

     Dynamical RAM for          <psi|beta>:       0.10 MB

     Dynamical RAM for                 psi:      12.16 MB

     Dynamical RAM for                hpsi:      12.16 MB

     Dynamical RAM for                spsi:      12.16 MB

     Dynamical RAM for      wfcinit/wfcrot:      17.19 MB

     Dynamical RAM for           addusdens:     938.08 MB

     Dynamical RAM for          addusforce:     986.73 MB

     Dynamical RAM for         addusstress:     984.26 MB

     Estimated static dynamical RAM per process >     796.21 MB

     Estimated max dynamical RAM per process >       1.89 GB

     Check: negative core charge=   -0.000004
     Generating pointlists ...
     new r_m :   0.1260 (alat units)  1.3479 (a.u.) for type    1
     new r_m :   0.1657 (alat units)  1.7723 (a.u.) for type    2
     new r_m :   0.1260 (alat units)  1.3479 (a.u.) for type    3
     new r_m :   0.2072 (alat units)  2.2165 (a.u.) for type    4

     Initial potential from superposition of free atoms

     starting charge      84.4375, renormalised to      85.0000

     negative rho (up, down):  7.030E-02 5.761E-02
     Starting wfcs are   73 randomized atomic wfcs
     Checking if some PAW data can be deallocated... 

     total cpu time spent up to now is        7.8 secs

     per-process dynamical memory:  1457.2 Mb

     Self-consistent Calculation
[tb_dev] Currently allocated     2.00E+00 Mbytes, locked:    0 /   8
[tb_pin] Currently allocated     0.00E+00 Mbytes, locked:    0 /   0

     iteration #  1     ecut=    65.00 Ry     beta= 0.40
     Davidson diagonalization with overlap

---- Real-time Memory Report at c_bands before calling an iterative solver
          1762 MiB given to the printing process from OS
          1443 MiB allocation reported by mallinfo(arena+hblkhd)
         57513 MiB available memory on the node where the printing process lives
     GPU memory used/free/total (MiB): 1284 / 14996 / 16280
------------------
     ethr =  1.00E-02,  avg # of iterations =  2.0

     negative rho (up, down):  6.784E-02 6.007E-02

     total cpu time spent up to now is       13.0 secs

     total energy              =    -734.27141070 Ry
     estimated scf accuracy    <       4.41023424 Ry

     total magnetization       =     5.00 Bohr mag/cell
     absolute magnetization    =     5.14 Bohr mag/cell
[tb_dev] Currently allocated     2.00E+00 Mbytes, locked:    0 /   6
[tb_pin] Currently allocated     0.00E+00 Mbytes, locked:    0 /   0

     iteration #  2     ecut=    65.00 Ry     beta= 0.40
     Davidson diagonalization with overlap

---- Real-time Memory Report at c_bands before calling an iterative solver
          1945 MiB given to the printing process from OS
          1507 MiB allocation reported by mallinfo(arena+hblkhd)
         57465 MiB available memory on the node where the printing process lives
     GPU memory used/free/total (MiB): 2682 / 13598 / 16280
------------------
     ethr =  5.19E-03,  avg # of iterations =  3.0

     negative rho (up, down):  6.753E-02 6.099E-02

     total cpu time spent up to now is       19.3 secs

     total energy              =    -734.40192318 Ry
     estimated scf accuracy    <       7.26032466 Ry

     total magnetization       =     6.20 Bohr mag/cell
     absolute magnetization    =     6.24 Bohr mag/cell
[tb_dev] Currently allocated     2.00E+00 Mbytes, locked:    0 /   6
[tb_pin] Currently allocated     0.00E+00 Mbytes, locked:    0 /   0

     iteration #  3     ecut=    65.00 Ry     beta= 0.40
     Davidson diagonalization with overlap

---- Real-time Memory Report at c_bands before calling an iterative solver
          2099 MiB given to the printing process from OS
          1524 MiB allocation reported by mallinfo(arena+hblkhd)
         57445 MiB available memory on the node where the printing process lives
     GPU memory used/free/total (MiB): 2700 / 13580 / 16280
------------------
     ethr =  5.19E-03,  avg # of iterations =  2.1

     negative rho (up, down):  6.707E-02 6.273E-02

     total cpu time spent up to now is       24.7 secs

     total energy              =    -735.75252090 Ry
     estimated scf accuracy    <       0.56682414 Ry

     total magnetization       =     5.00 Bohr mag/cell
     absolute magnetization    =     5.08 Bohr mag/cell
[tb_dev] Currently allocated     2.00E+00 Mbytes, locked:    0 /   6
[tb_pin] Currently allocated     0.00E+00 Mbytes, locked:    0 /   0

     iteration #  4     ecut=    65.00 Ry     beta= 0.40
     Davidson diagonalization with overlap

---- Real-time Memory Report at c_bands before calling an iterative solver
          2224 MiB given to the printing process from OS
          1542 MiB allocation reported by mallinfo(arena+hblkhd)
         57424 MiB available memory on the node where the printing process lives
     GPU memory used/free/total (MiB): 2700 / 13580 / 16280
------------------
     ethr =  6.67E-04,  avg # of iterations =  2.1

     negative rho (up, down):  6.691E-02 6.341E-02

     total cpu time spent up to now is       30.1 secs

     total energy              =    -735.76142909 Ry
     estimated scf accuracy    <       0.30620434 Ry

     total magnetization       =     4.98 Bohr mag/cell
     absolute magnetization    =     5.08 Bohr mag/cell
[tb_dev] Currently allocated     2.00E+00 Mbytes, locked:    0 /   6
[tb_pin] Currently allocated     0.00E+00 Mbytes, locked:    0 /   0

     iteration #  5     ecut=    65.00 Ry     beta= 0.40
     Davidson diagonalization with overlap

---- Real-time Memory Report at c_bands before calling an iterative solver
          2298 MiB given to the printing process from OS
          1559 MiB allocation reported by mallinfo(arena+hblkhd)
         57410 MiB available memory on the node where the printing process lives
     GPU memory used/free/total (MiB): 2700 / 13580 / 16280
------------------
     ethr =  3.60E-04,  avg # of iterations =  1.9

     negative rho (up, down):  6.629E-02 6.599E-02

     total cpu time spent up to now is       35.4 secs

     total energy              =    -735.78822805 Ry
     estimated scf accuracy    <       0.13539459 Ry

     total magnetization       =     4.83 Bohr mag/cell
     absolute magnetization    =     4.98 Bohr mag/cell
[tb_dev] Currently allocated     2.00E+00 Mbytes, locked:    0 /   6
[tb_pin] Currently allocated     0.00E+00 Mbytes, locked:    0 /   0

     iteration #  6     ecut=    65.00 Ry     beta= 0.40
     Davidson diagonalization with overlap

---- Real-time Memory Report at c_bands before calling an iterative solver
          2356 MiB given to the printing process from OS
          1576 MiB allocation reported by mallinfo(arena+hblkhd)
         57392 MiB available memory on the node where the printing process lives
     GPU memory used/free/total (MiB): 2700 / 13580 / 16280
------------------
     ethr =  1.59E-04,  avg # of iterations =  3.5

     negative rho (up, down):  6.621E-02 6.625E-02

     total cpu time spent up to now is       41.7 secs

     total energy              =    -735.81071777 Ry
     estimated scf accuracy    <       0.07294049 Ry

     total magnetization       =     4.31 Bohr mag/cell
     absolute magnetization    =     4.46 Bohr mag/cell
[tb_dev] Currently allocated     2.00E+00 Mbytes, locked:    0 /   6
[tb_pin] Currently allocated     0.00E+00 Mbytes, locked:    0 /   0

     iteration #  7     ecut=    65.00 Ry     beta= 0.40
     Davidson diagonalization with overlap

---- Real-time Memory Report at c_bands before calling an iterative solver
          2412 MiB given to the printing process from OS
          1591 MiB allocation reported by mallinfo(arena+hblkhd)
         57376 MiB available memory on the node where the printing process lives
     GPU memory used/free/total (MiB): 2750 / 13530 / 16280
------------------
     ethr =  8.58E-05,  avg # of iterations =  2.9

     negative rho (up, down):  6.615E-02 6.604E-02

     total cpu time spent up to now is       47.3 secs

     total energy              =    -735.81748186 Ry
     estimated scf accuracy    <       0.00483492 Ry

     total magnetization       =     4.19 Bohr mag/cell
     absolute magnetization    =     4.31 Bohr mag/cell
[tb_dev] Currently allocated     2.00E+00 Mbytes, locked:    0 /   6
[tb_pin] Currently allocated     0.00E+00 Mbytes, locked:    0 /   0

     iteration #  8     ecut=    65.00 Ry     beta= 0.40
     Davidson diagonalization with overlap

---- Real-time Memory Report at c_bands before calling an iterative solver
          2468 MiB given to the printing process from OS
          1607 MiB allocation reported by mallinfo(arena+hblkhd)
         57364 MiB available memory on the node where the printing process lives
     GPU memory used/free/total (MiB): 2750 / 13530 / 16280
------------------
     c_bands:  1 eigenvalues not converged
     c_bands:  1 eigenvalues not converged
     c_bands:  1 eigenvalues not converged
     c_bands:  1 eigenvalues not converged
     c_bands:  1 eigenvalues not converged
     c_bands:  1 eigenvalues not converged
     ethr =  5.69E-06,  avg # of iterations = 10.5

     negative rho (up, down):  6.608E-02 6.604E-02

     total cpu time spent up to now is       57.7 secs

     total energy              =    -735.81902399 Ry
     estimated scf accuracy    <       0.00284602 Ry

     total magnetization       =     3.98 Bohr mag/cell
     absolute magnetization    =     4.09 Bohr mag/cell
[tb_dev] Currently allocated     2.00E+00 Mbytes, locked:    0 /   6
[tb_pin] Currently allocated     0.00E+00 Mbytes, locked:    0 /   0

     iteration #  9     ecut=    65.00 Ry     beta= 0.40
     Davidson diagonalization with overlap

---- Real-time Memory Report at c_bands before calling an iterative solver
          2503 MiB given to the printing process from OS
          1624 MiB allocation reported by mallinfo(arena+hblkhd)
         57346 MiB available memory on the node where the printing process lives
     GPU memory used/free/total (MiB): 2750 / 13530 / 16280
------------------
     ethr =  3.35E-06,  avg # of iterations =  1.6

     negative rho (up, down):  6.595E-02 6.596E-02

     total cpu time spent up to now is       62.7 secs

     total energy              =    -735.82015579 Ry
     estimated scf accuracy    <       0.00169796 Ry

     total magnetization       =     3.81 Bohr mag/cell
     absolute magnetization    =     3.92 Bohr mag/cell
[tb_dev] Currently allocated     2.00E+00 Mbytes, locked:    0 /   6
[tb_pin] Currently allocated     0.00E+00 Mbytes, locked:    0 /   0

     iteration # 10     ecut=    65.00 Ry     beta= 0.40
     Davidson diagonalization with overlap

---- Real-time Memory Report at c_bands before calling an iterative solver
          2529 MiB given to the printing process from OS
          1641 MiB allocation reported by mallinfo(arena+hblkhd)
         57327 MiB available memory on the node where the printing process lives
     GPU memory used/free/total (MiB): 2750 / 13530 / 16280
------------------
     ethr =  2.00E-06,  avg # of iterations =  3.8

     negative rho (up, down):  6.595E-02 6.592E-02

     total cpu time spent up to now is       69.3 secs

     total energy              =    -735.82060546 Ry
     estimated scf accuracy    <       0.00418453 Ry

     total magnetization       =     3.54 Bohr mag/cell
     absolute magnetization    =     3.63 Bohr mag/cell
[tb_dev] Currently allocated     2.00E+00 Mbytes, locked:    0 /   6
[tb_pin] Currently allocated     0.00E+00 Mbytes, locked:    0 /   0

     iteration # 11     ecut=    65.00 Ry     beta= 0.40
     Davidson diagonalization with overlap

---- Real-time Memory Report at c_bands before calling an iterative solver
          2554 MiB given to the printing process from OS
          1652 MiB allocation reported by mallinfo(arena+hblkhd)
         57319 MiB available memory on the node where the printing process lives
     GPU memory used/free/total (MiB): 2750 / 13530 / 16280
------------------
     ethr =  2.00E-06,  avg # of iterations =  3.9

     negative rho (up, down):  6.592E-02 6.592E-02

     total cpu time spent up to now is       76.0 secs

     total energy              =    -735.82179398 Ry
     estimated scf accuracy    <       0.00079479 Ry

     total magnetization       =     3.29 Bohr mag/cell
     absolute magnetization    =     3.38 Bohr mag/cell
[tb_dev] Currently allocated     2.00E+00 Mbytes, locked:    0 /   6
[tb_pin] Currently allocated     0.00E+00 Mbytes, locked:    0 /   0

     iteration # 12     ecut=    65.00 Ry     beta= 0.40
     Davidson diagonalization with overlap

---- Real-time Memory Report at c_bands before calling an iterative solver
          2572 MiB given to the printing process from OS
          1663 MiB allocation reported by mallinfo(arena+hblkhd)
         57307 MiB available memory on the node where the printing process lives
     GPU memory used/free/total (MiB): 2750 / 13530 / 16280
------------------
     ethr =  9.35E-07,  avg # of iterations =  1.2

     negative rho (up, down):  6.594E-02 6.594E-02

     total cpu time spent up to now is       80.9 secs

     total energy              =    -735.82098532 Ry
     estimated scf accuracy    <       0.00207807 Ry

     total magnetization       =     3.31 Bohr mag/cell
     absolute magnetization    =     3.39 Bohr mag/cell
[tb_dev] Currently allocated     2.00E+00 Mbytes, locked:    0 /   6
[tb_pin] Currently allocated     0.00E+00 Mbytes, locked:    0 /   0

     iteration # 13     ecut=    65.00 Ry     beta= 0.40
     Davidson diagonalization with overlap

---- Real-time Memory Report at c_bands before calling an iterative solver
          2582 MiB given to the printing process from OS
          1674 MiB allocation reported by mallinfo(arena+hblkhd)
         57297 MiB available memory on the node where the printing process lives
     GPU memory used/free/total (MiB): 2750 / 13530 / 16280
------------------
     ethr =  9.35E-07,  avg # of iterations =  3.8

     negative rho (up, down):  6.595E-02 6.592E-02

     total cpu time spent up to now is       87.8 secs

     total energy              =    -735.81606459 Ry
     estimated scf accuracy    <       0.00494119 Ry

     total magnetization       =     2.68 Bohr mag/cell
     absolute magnetization    =     2.77 Bohr mag/cell
[tb_dev] Currently allocated     2.00E+00 Mbytes, locked:    0 /   6
[tb_pin] Currently allocated     0.00E+00 Mbytes, locked:    0 /   0

     iteration # 14     ecut=    65.00 Ry     beta= 0.40
     Davidson diagonalization with overlap

---- Real-time Memory Report at c_bands before calling an iterative solver
          2594 MiB given to the printing process from OS
          1685 MiB allocation reported by mallinfo(arena+hblkhd)
         57285 MiB available memory on the node where the printing process lives
     GPU memory used/free/total (MiB): 2750 / 13530 / 16280
------------------
     ethr =  9.35E-07,  avg # of iterations =  3.7

     negative rho (up, down):  6.596E-02 6.593E-02

     total cpu time spent up to now is       94.6 secs

     total energy              =    -735.81959918 Ry
     estimated scf accuracy    <       0.00030621 Ry

     total magnetization       =     3.44 Bohr mag/cell
     absolute magnetization    =     3.52 Bohr mag/cell
[tb_dev] Currently allocated     2.00E+00 Mbytes, locked:    0 /   6
[tb_pin] Currently allocated     0.00E+00 Mbytes, locked:    0 /   0

     iteration # 15     ecut=    65.00 Ry     beta= 0.40
     Davidson diagonalization with overlap

---- Real-time Memory Report at c_bands before calling an iterative solver
          2605 MiB given to the printing process from OS
          1696 MiB allocation reported by mallinfo(arena+hblkhd)
         57279 MiB available memory on the node where the printing process lives
     GPU memory used/free/total (MiB): 2750 / 13530 / 16280
------------------
     ethr =  3.60E-07,  avg # of iterations =  3.4

     negative rho (up, down):  6.595E-02 6.595E-02

     total cpu time spent up to now is      101.2 secs

     total energy              =    -735.82038483 Ry
     estimated scf accuracy    <       0.00038088 Ry

     total magnetization       =     3.65 Bohr mag/cell
     absolute magnetization    =     3.73 Bohr mag/cell
[tb_dev] Currently allocated     2.00E+00 Mbytes, locked:    0 /   6
[tb_pin] Currently allocated     0.00E+00 Mbytes, locked:    0 /   0

     iteration # 16     ecut=    65.00 Ry     beta= 0.40
     Davidson diagonalization with overlap

---- Real-time Memory Report at c_bands before calling an iterative solver
          2616 MiB given to the printing process from OS
          1707 MiB allocation reported by mallinfo(arena+hblkhd)
         57262 MiB available memory on the node where the printing process lives
     GPU memory used/free/total (MiB): 2750 / 13530 / 16280
------------------
     ethr =  3.60E-07,  avg # of iterations =  1.0

     negative rho (up, down):  6.596E-02 6.591E-02

     total cpu time spent up to now is      106.0 secs

     total energy              =    -735.81985684 Ry
     estimated scf accuracy    <       0.00025397 Ry

     total magnetization       =     3.63 Bohr mag/cell
     absolute magnetization    =     3.72 Bohr mag/cell
[tb_dev] Currently allocated     2.00E+00 Mbytes, locked:    0 /   6
[tb_pin] Currently allocated     0.00E+00 Mbytes, locked:    0 /   0

     iteration # 17     ecut=    65.00 Ry     beta= 0.40
     Davidson diagonalization with overlap

---- Real-time Memory Report at c_bands before calling an iterative solver
          2628 MiB given to the printing process from OS
          1718 MiB allocation reported by mallinfo(arena+hblkhd)
         57254 MiB available memory on the node where the printing process lives
     GPU memory used/free/total (MiB): 2750 / 13530 / 16280
------------------
     ethr =  2.99E-07,  avg # of iterations =  2.0

     negative rho (up, down):  6.599E-02 6.595E-02

     total cpu time spent up to now is      111.3 secs

     total energy              =    -735.81976768 Ry
     estimated scf accuracy    <       0.00027469 Ry

     total magnetization       =     3.70 Bohr mag/cell
     absolute magnetization    =     3.79 Bohr mag/cell
[tb_dev] Currently allocated     2.00E+00 Mbytes, locked:    0 /   6
[tb_pin] Currently allocated     0.00E+00 Mbytes, locked:    0 /   0

     iteration # 18     ecut=    65.00 Ry     beta= 0.40
     Davidson diagonalization with overlap

---- Real-time Memory Report at c_bands before calling an iterative solver
          2638 MiB given to the printing process from OS
          1729 MiB allocation reported by mallinfo(arena+hblkhd)
         57241 MiB available memory on the node where the printing process lives
     GPU memory used/free/total (MiB): 2750 / 13530 / 16280
------------------
     ethr =  2.99E-07,  avg # of iterations =  1.0

     negative rho (up, down):  6.598E-02 6.595E-02

     total cpu time spent up to now is      116.1 secs

     total energy              =    -735.81926134 Ry
     estimated scf accuracy    <       0.00029487 Ry

     total magnetization       =     3.72 Bohr mag/cell
     absolute magnetization    =     3.81 Bohr mag/cell
[tb_dev] Currently allocated     2.00E+00 Mbytes, locked:    0 /   6
[tb_pin] Currently allocated     0.00E+00 Mbytes, locked:    0 /   0

     iteration # 19     ecut=    65.00 Ry     beta= 0.40
     Davidson diagonalization with overlap

---- Real-time Memory Report at c_bands before calling an iterative solver
          2649 MiB given to the printing process from OS
          1740 MiB allocation reported by mallinfo(arena+hblkhd)
         57233 MiB available memory on the node where the printing process lives
     GPU memory used/free/total (MiB): 2750 / 13530 / 16280
------------------
     ethr =  2.99E-07,  avg # of iterations =  1.8

     negative rho (up, down):  6.599E-02 6.595E-02

     total cpu time spent up to now is      121.3 secs

     total energy              =    -735.81907953 Ry
     estimated scf accuracy    <       0.00034110 Ry

     total magnetization       =     3.78 Bohr mag/cell
     absolute magnetization    =     3.87 Bohr mag/cell
[tb_dev] Currently allocated     2.00E+00 Mbytes, locked:    0 /   6
[tb_pin] Currently allocated     0.00E+00 Mbytes, locked:    0 /   0

     iteration # 20     ecut=    65.00 Ry     beta= 0.40
     Davidson diagonalization with overlap

---- Real-time Memory Report at c_bands before calling an iterative solver
          2660 MiB given to the printing process from OS
          1752 MiB allocation reported by mallinfo(arena+hblkhd)
         57221 MiB available memory on the node where the printing process lives
     GPU memory used/free/total (MiB): 2750 / 13530 / 16280
------------------
     ethr =  2.99E-07,  avg # of iterations =  4.1

     negative rho (up, down):  6.600E-02 6.596E-02

     total cpu time spent up to now is      128.6 secs

     total energy              =    -735.82137171 Ry
     estimated scf accuracy    <       0.00017938 Ry

     total magnetization       =     3.35 Bohr mag/cell
     absolute magnetization    =     3.43 Bohr mag/cell
[tb_dev] Currently allocated     2.00E+00 Mbytes, locked:    0 /   6
[tb_pin] Currently allocated     0.00E+00 Mbytes, locked:    0 /   0

     iteration # 21     ecut=    65.00 Ry     beta= 0.40
     Davidson diagonalization with overlap

---- Real-time Memory Report at c_bands before calling an iterative solver
          2672 MiB given to the printing process from OS
          1763 MiB allocation reported by mallinfo(arena+hblkhd)
         57208 MiB available memory on the node where the printing process lives
     GPU memory used/free/total (MiB): 2750 / 13530 / 16280
------------------
     ethr =  2.11E-07,  avg # of iterations =  4.4

     negative rho (up, down):  6.599E-02 6.596E-02

     total cpu time spent up to now is      135.9 secs

     total energy              =    -735.81404201 Ry
     estimated scf accuracy    <       0.00039315 Ry

     total magnetization       =     2.84 Bohr mag/cell
     absolute magnetization    =     2.93 Bohr mag/cell
[tb_dev] Currently allocated     2.00E+00 Mbytes, locked:    0 /   6
[tb_pin] Currently allocated     0.00E+00 Mbytes, locked:    0 /   0

     iteration # 22     ecut=    65.00 Ry     beta= 0.40
     Davidson diagonalization with overlap

---- Real-time Memory Report at c_bands before calling an iterative solver
          2683 MiB given to the printing process from OS
          1774 MiB allocation reported by mallinfo(arena+hblkhd)
         57196 MiB available memory on the node where the printing process lives
     GPU memory used/free/total (MiB): 2750 / 13530 / 16280
------------------
     ethr =  2.11E-07,  avg # of iterations =  4.6

     negative rho (up, down):  6.600E-02 6.598E-02

     total cpu time spent up to now is      143.7 secs

     total energy              =    -735.81682686 Ry
     estimated scf accuracy    <       0.00019498 Ry

     total magnetization       =     3.61 Bohr mag/cell
     absolute magnetization    =     3.70 Bohr mag/cell
[tb_dev] Currently allocated     2.00E+00 Mbytes, locked:    0 /   6
[tb_pin] Currently allocated     0.00E+00 Mbytes, locked:    0 /   0

     iteration # 23     ecut=    65.00 Ry     beta= 0.40
     Davidson diagonalization with overlap

---- Real-time Memory Report at c_bands before calling an iterative solver
          2698 MiB given to the printing process from OS
          1791 MiB allocation reported by mallinfo(arena+hblkhd)
         57188 MiB available memory on the node where the printing process lives
     GPU memory used/free/total (MiB): 2750 / 13530 / 16280
------------------
     ethr =  2.11E-07,  avg # of iterations =  4.3

     negative rho (up, down):  6.599E-02 6.599E-02

     total cpu time spent up to now is      151.1 secs

     total energy              =    -735.80047829 Ry
     estimated scf accuracy    <       0.00042042 Ry

     total magnetization       =     3.94 Bohr mag/cell
     absolute magnetization    =     4.03 Bohr mag/cell
[tb_dev] Currently allocated     2.00E+00 Mbytes, locked:    0 /   6
[tb_pin] Currently allocated     0.00E+00 Mbytes, locked:    0 /   0

     iteration # 24     ecut=    65.00 Ry     beta= 0.40
     Davidson diagonalization with overlap

---- Real-time Memory Report at c_bands before calling an iterative solver
          2709 MiB given to the printing process from OS
          1803 MiB allocation reported by mallinfo(arena+hblkhd)
         57175 MiB available memory on the node where the printing process lives
     GPU memory used/free/total (MiB): 2750 / 13530 / 16280
------------------
     ethr =  2.11E-07,  avg # of iterations =  5.9

     negative rho (up, down):  6.598E-02 6.600E-02

     total cpu time spent up to now is      160.2 secs

     total energy              =    -735.81017138 Ry
     estimated scf accuracy    <       0.00233471 Ry

     total magnetization       =     4.65 Bohr mag/cell
     absolute magnetization    =     4.77 Bohr mag/cell
[tb_dev] Currently allocated     2.00E+00 Mbytes, locked:    0 /   6
[tb_pin] Currently allocated     0.00E+00 Mbytes, locked:    0 /   0

     iteration # 25     ecut=    65.00 Ry     beta= 0.40
     Davidson diagonalization with overlap

---- Real-time Memory Report at c_bands before calling an iterative solver
          2722 MiB given to the printing process from OS
          1814 MiB allocation reported by mallinfo(arena+hblkhd)
         57166 MiB available memory on the node where the printing process lives
     GPU memory used/free/total (MiB): 2750 / 13530 / 16280
------------------
     ethr =  2.11E-07,  avg # of iterations =  1.7

     negative rho (up, down):  6.598E-02 6.600E-02

     total cpu time spent up to now is      165.5 secs

     total energy              =    -735.81140629 Ry
     estimated scf accuracy    <       0.00217297 Ry

     total magnetization       =     4.59 Bohr mag/cell
     absolute magnetization    =     4.70 Bohr mag/cell
[tb_dev] Currently allocated     2.00E+00 Mbytes, locked:    0 /   6
[tb_pin] Currently allocated     0.00E+00 Mbytes, locked:    0 /   0

     iteration # 26     ecut=    65.00 Ry     beta= 0.40
     Davidson diagonalization with overlap

---- Real-time Memory Report at c_bands before calling an iterative solver
          2733 MiB given to the printing process from OS
          1825 MiB allocation reported by mallinfo(arena+hblkhd)
         57151 MiB available memory on the node where the printing process lives
     GPU memory used/free/total (MiB): 2750 / 13530 / 16280
------------------
     ethr =  2.11E-07,  avg # of iterations =  2.4

     negative rho (up, down):  6.598E-02 6.600E-02

     total cpu time spent up to now is      171.1 secs

     total energy              =    -735.81320909 Ry
     estimated scf accuracy    <       0.00190462 Ry

     total magnetization       =     4.52 Bohr mag/cell
     absolute magnetization    =     4.63 Bohr mag/cell
[tb_dev] Currently allocated     2.00E+00 Mbytes, locked:    0 /   6
[tb_pin] Currently allocated     0.00E+00 Mbytes, locked:    0 /   0

     iteration # 27     ecut=    65.00 Ry     beta= 0.40
     Davidson diagonalization with overlap

---- Real-time Memory Report at c_bands before calling an iterative solver
          2744 MiB given to the printing process from OS
          1836 MiB allocation reported by mallinfo(arena+hblkhd)
         57141 MiB available memory on the node where the printing process lives
     GPU memory used/free/total (MiB): 2750 / 13530 / 16280
------------------
     ethr =  2.11E-07,  avg # of iterations =  2.9

     negative rho (up, down):  6.599E-02 6.599E-02

     total cpu time spent up to now is      177.1 secs

     total energy              =    -735.81357988 Ry
     estimated scf accuracy    <       0.00143801 Ry

     total magnetization       =     4.42 Bohr mag/cell
     absolute magnetization    =     4.52 Bohr mag/cell
[tb_dev] Currently allocated     2.00E+00 Mbytes, locked:    0 /   6
[tb_pin] Currently allocated     0.00E+00 Mbytes, locked:    0 /   0

     iteration # 28     ecut=    65.00 Ry     beta= 0.40
     Davidson diagonalization with overlap

---- Real-time Memory Report at c_bands before calling an iterative solver
          2758 MiB given to the printing process from OS
          1847 MiB allocation reported by mallinfo(arena+hblkhd)
         57124 MiB available memory on the node where the printing process lives
     GPU memory used/free/total (MiB): 2750 / 13530 / 16280
------------------
     ethr =  2.11E-07,  avg # of iterations =  5.6

     negative rho (up, down):  6.599E-02 6.599E-02

     total cpu time spent up to now is      185.8 secs

     total energy              =    -735.81993146 Ry
     estimated scf accuracy    <       0.00037906 Ry

     total magnetization       =     3.73 Bohr mag/cell
     absolute magnetization    =     3.82 Bohr mag/cell
[tb_dev] Currently allocated     2.00E+00 Mbytes, locked:    0 /   6
[tb_pin] Currently allocated     0.00E+00 Mbytes, locked:    0 /   0

     iteration # 29     ecut=    65.00 Ry     beta= 0.40
     Davidson diagonalization with overlap

---- Real-time Memory Report at c_bands before calling an iterative solver
          2769 MiB given to the printing process from OS
          1858 MiB allocation reported by mallinfo(arena+hblkhd)
         57112 MiB available memory on the node where the printing process lives
     GPU memory used/free/total (MiB): 2750 / 13530 / 16280
------------------
     ethr =  2.11E-07,  avg # of iterations =  1.9

     negative rho (up, down):  6.599E-02 6.598E-02

     total cpu time spent up to now is      191.2 secs

     total energy              =    -735.82051993 Ry
     estimated scf accuracy    <       0.00034633 Ry

     total magnetization       =     3.68 Bohr mag/cell
     absolute magnetization    =     3.76 Bohr mag/cell
[tb_dev] Currently allocated     2.00E+00 Mbytes, locked:    0 /   6
[tb_pin] Currently allocated     0.00E+00 Mbytes, locked:    0 /   0

     iteration # 30     ecut=    65.00 Ry     beta= 0.40
     Davidson diagonalization with overlap

---- Real-time Memory Report at c_bands before calling an iterative solver
          2782 MiB given to the printing process from OS
          1869 MiB allocation reported by mallinfo(arena+hblkhd)
         57100 MiB available memory on the node where the printing process lives
     GPU memory used/free/total (MiB): 2750 / 13530 / 16280
------------------
     ethr =  2.11E-07,  avg # of iterations =  3.5

     negative rho (up, down):  6.600E-02 6.598E-02

     total cpu time spent up to now is      197.7 secs

     total energy              =    -735.82090391 Ry
     estimated scf accuracy    <       0.00023339 Ry

     total magnetization       =     3.51 Bohr mag/cell
     absolute magnetization    =     3.59 Bohr mag/cell
[tb_dev] Currently allocated     2.00E+00 Mbytes, locked:    0 /   6
[tb_pin] Currently allocated     0.00E+00 Mbytes, locked:    0 /   0

     iteration # 31     ecut=    65.00 Ry     beta= 0.40
     Davidson diagonalization with overlap

---- Real-time Memory Report at c_bands before calling an iterative solver
          2793 MiB given to the printing process from OS
          1880 MiB allocation reported by mallinfo(arena+hblkhd)
         57094 MiB available memory on the node where the printing process lives
     GPU memory used/free/total (MiB): 2750 / 13530 / 16280
------------------
     ethr =  2.11E-07,  avg # of iterations =  4.4

     negative rho (up, down):  6.601E-02 6.597E-02

     total cpu time spent up to now is      205.0 secs

     total energy              =    -735.81661656 Ry
     estimated scf accuracy    <       0.00031376 Ry

     total magnetization       =     3.09 Bohr mag/cell
     absolute magnetization    =     3.17 Bohr mag/cell
[tb_dev] Currently allocated     2.00E+00 Mbytes, locked:    0 /   6
[tb_pin] Currently allocated     0.00E+00 Mbytes, locked:    0 /   0

     iteration # 32     ecut=    65.00 Ry     beta= 0.40
     Davidson diagonalization with overlap

---- Real-time Memory Report at c_bands before calling an iterative solver
          2805 MiB given to the printing process from OS
          1891 MiB allocation reported by mallinfo(arena+hblkhd)
         57082 MiB available memory on the node where the printing process lives
     GPU memory used/free/total (MiB): 2750 / 13530 / 16280
------------------
     ethr =  2.11E-07,  avg # of iterations =  6.1

     negative rho (up, down):  6.600E-02 6.597E-02

     total cpu time spent up to now is      214.1 secs

     total energy              =    -735.82110132 Ry
     estimated scf accuracy    <       0.00300312 Ry

     total magnetization       =     1.79 Bohr mag/cell
     absolute magnetization    =     2.44 Bohr mag/cell
[tb_dev] Currently allocated     2.00E+00 Mbytes, locked:    0 /   6
[tb_pin] Currently allocated     0.00E+00 Mbytes, locked:    0 /   0

     iteration # 33     ecut=    65.00 Ry     beta= 0.40
     Davidson diagonalization with overlap

---- Real-time Memory Report at c_bands before calling an iterative solver
          2816 MiB given to the printing process from OS
          1907 MiB allocation reported by mallinfo(arena+hblkhd)
         57067 MiB available memory on the node where the printing process lives
     GPU memory used/free/total (MiB): 2750 / 13530 / 16280
------------------
     ethr =  2.11E-07,  avg # of iterations =  4.4

     negative rho (up, down):  6.600E-02 6.598E-02

     total cpu time spent up to now is      221.5 secs

     total energy              =    -735.82491236 Ry
     estimated scf accuracy    <       0.00085769 Ry

     total magnetization       =     2.51 Bohr mag/cell
     absolute magnetization    =     2.60 Bohr mag/cell
[tb_dev] Currently allocated     2.00E+00 Mbytes, locked:    0 /   6
[tb_pin] Currently allocated     0.00E+00 Mbytes, locked:    0 /   0

     iteration # 34     ecut=    65.00 Ry     beta= 0.40
     Davidson diagonalization with overlap

---- Real-time Memory Report at c_bands before calling an iterative solver
          2829 MiB given to the printing process from OS
          1918 MiB allocation reported by mallinfo(arena+hblkhd)
         57053 MiB available memory on the node where the printing process lives
     GPU memory used/free/total (MiB): 2750 / 13530 / 16280
------------------
     ethr =  2.11E-07,  avg # of iterations =  1.4

     negative rho (up, down):  6.600E-02 6.598E-02

     total cpu time spent up to now is      226.4 secs

     total energy              =    -735.82548627 Ry
     estimated scf accuracy    <       0.00073408 Ry

     total magnetization       =     2.58 Bohr mag/cell
     absolute magnetization    =     2.67 Bohr mag/cell
[tb_dev] Currently allocated     2.00E+00 Mbytes, locked:    0 /   6
[tb_pin] Currently allocated     0.00E+00 Mbytes, locked:    0 /   0

     iteration # 35     ecut=    65.00 Ry     beta= 0.40
     Davidson diagonalization with overlap

---- Real-time Memory Report at c_bands before calling an iterative solver
          2842 MiB given to the printing process from OS
          1929 MiB allocation reported by mallinfo(arena+hblkhd)
         57045 MiB available memory on the node where the printing process lives
     GPU memory used/free/total (MiB): 2750 / 13530 / 16280
------------------
     ethr =  2.11E-07,  avg # of iterations =  1.9

     negative rho (up, down):  6.601E-02 6.597E-02

     total cpu time spent up to now is      231.7 secs

     total energy              =    -735.82634669 Ry
     estimated scf accuracy    <       0.00085355 Ry

     total magnetization       =     2.47 Bohr mag/cell
     absolute magnetization    =     2.57 Bohr mag/cell
[tb_dev] Currently allocated     2.00E+00 Mbytes, locked:    0 /   6
[tb_pin] Currently allocated     0.00E+00 Mbytes, locked:    0 /   0

     iteration # 36     ecut=    65.00 Ry     beta= 0.40
     Davidson diagonalization with overlap

---- Real-time Memory Report at c_bands before calling an iterative solver
          2853 MiB given to the printing process from OS
          1940 MiB allocation reported by mallinfo(arena+hblkhd)
         57032 MiB available memory on the node where the printing process lives
     GPU memory used/free/total (MiB): 2750 / 13530 / 16280
------------------
     ethr =  2.11E-07,  avg # of iterations =  4.8

     negative rho (up, down):  6.601E-02 6.597E-02

     total cpu time spent up to now is      239.6 secs

     total energy              =    -735.82901058 Ry
     estimated scf accuracy    <       0.00345520 Ry

     total magnetization       =     1.64 Bohr mag/cell
     absolute magnetization    =     2.58 Bohr mag/cell
[tb_dev] Currently allocated     2.00E+00 Mbytes, locked:    0 /   6
[tb_pin] Currently allocated     0.00E+00 Mbytes, locked:    0 /   0

     iteration # 37     ecut=    65.00 Ry     beta= 0.40
     Davidson diagonalization with overlap

---- Real-time Memory Report at c_bands before calling an iterative solver
          2865 MiB given to the printing process from OS
          1951 MiB allocation reported by mallinfo(arena+hblkhd)
         57020 MiB available memory on the node where the printing process lives
     GPU memory used/free/total (MiB): 2750 / 13530 / 16280
------------------
     ethr =  2.11E-07,  avg # of iterations =  2.4

     negative rho (up, down):  6.600E-02 6.598E-02

     total cpu time spent up to now is      245.2 secs

     total energy              =    -735.80085282 Ry
     estimated scf accuracy    <       0.00247113 Ry

     total magnetization       =     1.88 Bohr mag/cell
     absolute magnetization    =     2.39 Bohr mag/cell
[tb_dev] Currently allocated     2.00E+00 Mbytes, locked:    0 /   6
[tb_pin] Currently allocated     0.00E+00 Mbytes, locked:    0 /   0

     iteration # 38     ecut=    65.00 Ry     beta= 0.40
     Davidson diagonalization with overlap

---- Real-time Memory Report at c_bands before calling an iterative solver
          2877 MiB given to the printing process from OS
          1971 MiB allocation reported by mallinfo(arena+hblkhd)
         56998 MiB available memory on the node where the printing process lives
     GPU memory used/free/total (MiB): 2750 / 13530 / 16280
------------------
     ethr =  2.11E-07,  avg # of iterations =  6.0

     negative rho (up, down):  6.599E-02 6.599E-02

     total cpu time spent up to now is      254.4 secs

     total energy              =    -735.81769024 Ry
     estimated scf accuracy    <       0.00018896 Ry

     total magnetization       =     3.37 Bohr mag/cell
     absolute magnetization    =     3.45 Bohr mag/cell
[tb_dev] Currently allocated     2.00E+00 Mbytes, locked:    0 /   6
[tb_pin] Currently allocated     0.00E+00 Mbytes, locked:    0 /   0

     iteration # 39     ecut=    65.00 Ry     beta= 0.40
     Davidson diagonalization with overlap

---- Real-time Memory Report at c_bands before calling an iterative solver
          2890 MiB given to the printing process from OS
          1982 MiB allocation reported by mallinfo(arena+hblkhd)
         56991 MiB available memory on the node where the printing process lives
     GPU memory used/free/total (MiB): 2750 / 13530 / 16280
------------------
     ethr =  2.11E-07,  avg # of iterations =  4.4

     negative rho (up, down):  6.600E-02 6.598E-02

     total cpu time spent up to now is      261.8 secs

     total energy              =    -735.81924222 Ry
     estimated scf accuracy    <       0.00033111 Ry

     total magnetization       =     3.71 Bohr mag/cell
     absolute magnetization    =     3.80 Bohr mag/cell
[tb_dev] Currently allocated     2.00E+00 Mbytes, locked:    0 /   6
[tb_pin] Currently allocated     0.00E+00 Mbytes, locked:    0 /   0

     iteration # 40     ecut=    65.00 Ry     beta= 0.40
     Davidson diagonalization with overlap

---- Real-time Memory Report at c_bands before calling an iterative solver
          2902 MiB given to the printing process from OS
          1993 MiB allocation reported by mallinfo(arena+hblkhd)
         56977 MiB available memory on the node where the printing process lives
     GPU memory used/free/total (MiB): 2750 / 13530 / 16280
------------------
     ethr =  2.11E-07,  avg # of iterations =  4.4

     negative rho (up, down):  6.600E-02 6.598E-02

     total cpu time spent up to now is      269.4 secs

     total energy              =    -735.82192228 Ry
     estimated scf accuracy    <       0.00021893 Ry

     total magnetization       =     3.24 Bohr mag/cell
     absolute magnetization    =     3.32 Bohr mag/cell
[tb_dev] Currently allocated     2.00E+00 Mbytes, locked:    0 /   6
[tb_pin] Currently allocated     0.00E+00 Mbytes, locked:    0 /   0

     iteration # 41     ecut=    65.00 Ry     beta= 0.40
     Davidson diagonalization with overlap

---- Real-time Memory Report at c_bands before calling an iterative solver
          2914 MiB given to the printing process from OS
          2004 MiB allocation reported by mallinfo(arena+hblkhd)
         56970 MiB available memory on the node where the printing process lives
     GPU memory used/free/total (MiB): 2750 / 13530 / 16280
------------------
     ethr =  2.11E-07,  avg # of iterations =  1.1

     negative rho (up, down):  6.600E-02 6.598E-02

     total cpu time spent up to now is      274.3 secs

     total energy              =    -735.82144073 Ry
     estimated scf accuracy    <       0.00021887 Ry

     total magnetization       =     3.25 Bohr mag/cell
     absolute magnetization    =     3.33 Bohr mag/cell
[tb_dev] Currently allocated     2.00E+00 Mbytes, locked:    0 /   6
[tb_pin] Currently allocated     0.00E+00 Mbytes, locked:    0 /   0

     iteration # 42     ecut=    65.00 Ry     beta= 0.40
     Davidson diagonalization with overlap

---- Real-time Memory Report at c_bands before calling an iterative solver
          2925 MiB given to the printing process from OS
          2015 MiB allocation reported by mallinfo(arena+hblkhd)
         56957 MiB available memory on the node where the printing process lives
     GPU memory used/free/total (MiB): 2750 / 13530 / 16280
------------------
     ethr =  2.11E-07,  avg # of iterations =  2.0

     negative rho (up, down):  6.599E-02 6.599E-02

     total cpu time spent up to now is      279.7 secs

     total energy              =    -735.81682245 Ry
     estimated scf accuracy    <       0.00019736 Ry

     total magnetization       =     3.36 Bohr mag/cell
     absolute magnetization    =     3.44 Bohr mag/cell
[tb_dev] Currently allocated     2.00E+00 Mbytes, locked:    0 /   6
[tb_pin] Currently allocated     0.00E+00 Mbytes, locked:    0 /   0

     iteration # 43     ecut=    65.00 Ry     beta= 0.40
     Davidson diagonalization with overlap

---- Real-time Memory Report at c_bands before calling an iterative solver
          2938 MiB given to the printing process from OS
          2026 MiB allocation reported by mallinfo(arena+hblkhd)
         56947 MiB available memory on the node where the printing process lives
     GPU memory used/free/total (MiB): 2750 / 13530 / 16280
------------------
     ethr =  2.11E-07,  avg # of iterations =  4.7

     negative rho (up, down):  6.599E-02 6.599E-02

     total cpu time spent up to now is      287.4 secs

     total energy              =    -735.81993030 Ry
     estimated scf accuracy    <       0.00036368 Ry

     total magnetization       =     3.76 Bohr mag/cell
     absolute magnetization    =     3.84 Bohr mag/cell
[tb_dev] Currently allocated     2.00E+00 Mbytes, locked:    0 /   6
[tb_pin] Currently allocated     0.00E+00 Mbytes, locked:    0 /   0

     iteration # 44     ecut=    65.00 Ry     beta= 0.40
     Davidson diagonalization with overlap

---- Real-time Memory Report at c_bands before calling an iterative solver
          2951 MiB given to the printing process from OS
          2037 MiB allocation reported by mallinfo(arena+hblkhd)
         56933 MiB available memory on the node where the printing process lives
     GPU memory used/free/total (MiB): 2750 / 13530 / 16280
------------------
     ethr =  2.11E-07,  avg # of iterations =  2.1

     negative rho (up, down):  6.599E-02 6.599E-02

     total cpu time spent up to now is      292.9 secs

     total energy              =    -735.81808613 Ry
     estimated scf accuracy    <       0.00027824 Ry

     total magnetization       =     3.67 Bohr mag/cell
     absolute magnetization    =     3.75 Bohr mag/cell
[tb_dev] Currently allocated     2.00E+00 Mbytes, locked:    0 /   6
[tb_pin] Currently allocated     0.00E+00 Mbytes, locked:    0 /   0

     iteration # 45     ecut=    65.00 Ry     beta= 0.40
     Davidson diagonalization with overlap

[...]
     estimated scf accuracy    <       0.00024006 Ry

     total magnetization       =     3.64 Bohr mag/cell
     absolute magnetization    =     3.72 Bohr mag/cell
[tb_dev] Currently allocated     2.00E+00 Mbytes, locked:    0 /   6
[tb_pin] Currently allocated     0.00E+00 Mbytes, locked:    0 /   0

     iteration # 66     ecut=    65.00 Ry     beta= 0.40
     Davidson diagonalization with overlap

---- Real-time Memory Report at c_bands before calling an iterative solver
          3215 MiB given to the printing process from OS
         -1790 MiB allocation reported by mallinfo(arena+hblkhd)
         56668 MiB available memory on the node where the printing process lives
     GPU memory used/free/total (MiB): 2750 / 13530 / 16280
------------------
     ethr =  1.91E-07,  avg # of iterations =  5.1

     negative rho (up, down):  6.600E-02 6.598E-02

     total cpu time spent up to now is      466.4 secs

     total energy              =    -735.82067004 Ry
     estimated scf accuracy    <       0.00037974 Ry

     total magnetization       =     2.94 Bohr mag/cell
     absolute magnetization    =     3.03 Bohr mag/cell
[tb_dev] Currently allocated     2.00E+00 Mbytes, locked:    0 /   6
[tb_pin] Currently allocated     0.00E+00 Mbytes, locked:    0 /   0

     iteration # 67     ecut=    65.00 Ry     beta= 0.40
     Davidson diagonalization with overlap

---- Real-time Memory Report at c_bands before calling an iterative solver
          3228 MiB given to the printing process from OS
         -1779 MiB allocation reported by mallinfo(arena+hblkhd)
         56658 MiB available memory on the node where the printing process lives
     GPU memory used/free/total (MiB): 2750 / 13530 / 16280
------------------
     ethr =  1.91E-07,  avg # of iterations =  3.6

     negative rho (up, down):  6.600E-02 6.598E-02

     total cpu time spent up to now is      473.0 secs

     total energy              =    -735.82208674 Ry
     estimated scf accuracy    <       0.00021276 Ry

     total magnetization       =     3.30 Bohr mag/cell
     absolute magnetization    =     3.38 Bohr mag/cell
[tb_dev] Currently allocated     2.00E+00 Mbytes, locked:    0 /   6
[tb_pin] Currently allocated     0.00E+00 Mbytes, locked:    0 /   0

     iteration # 68     ecut=    65.00 Ry     beta= 0.40
     Davidson diagonalization with overlap

---- Real-time Memory Report at c_bands before calling an iterative solver
          3241 MiB given to the printing process from OS
         -1768 MiB allocation reported by mallinfo(arena+hblkhd)
         56645 MiB available memory on the node where the printing process lives
     GPU memory used/free/total (MiB): 2750 / 13530 / 16280
------------------
     ethr =  1.91E-07,  avg # of iterations =  3.4

     negative rho (up, down):  6.599E-02 6.598E-02

     total cpu time spent up to now is      479.4 secs

     total energy              =    -735.81851375 Ry
     estimated scf accuracy    <       0.00034195 Ry

     total magnetization       =     2.98 Bohr mag/cell
     absolute magnetization    =     3.07 Bohr mag/cell
[tb_dev] Currently allocated     2.00E+00 Mbytes, locked:    0 /   6
[tb_pin] Currently allocated     0.00E+00 Mbytes, locked:    0 /   0

     iteration # 69     ecut=    65.00 Ry     beta= 0.40
     Davidson diagonalization with overlap

---- Real-time Memory Report at c_bands before calling an iterative solver
          3252 MiB given to the printing process from OS
         -1756 MiB allocation reported by mallinfo(arena+hblkhd)
         56638 MiB available memory on the node where the printing process lives
     GPU memory used/free/total (MiB): 2750 / 13530 / 16280
------------------
     ethr =  1.91E-07,  avg # of iterations =  4.2

     negative rho (up, down):  6.600E-02 6.598E-02

     total cpu time spent up to now is      486.7 secs

     total energy              =    -735.82130374 Ry
     estimated scf accuracy    <       0.00019098 Ry

     total magnetization       =     3.50 Bohr mag/cell
     absolute magnetization    =     3.58 Bohr mag/cell
[tb_dev] Currently allocated     2.00E+00 Mbytes, locked:    0 /   6
[tb_pin] Currently allocated     0.00E+00 Mbytes, locked:    0 /   0

     iteration # 70     ecut=    65.00 Ry     beta= 0.40
     Davidson diagonalization with overlap

---- Real-time Memory Report at c_bands before calling an iterative solver
          3263 MiB given to the printing process from OS
         -1746 MiB allocation reported by mallinfo(arena+hblkhd)
         56622 MiB available memory on the node where the printing process lives
     GPU memory used/free/total (MiB): 2750 / 13530 / 16280
------------------
     ethr =  1.91E-07,  avg # of iterations =  1.8

     negative rho (up, down):  6.600E-02 6.598E-02

     total cpu time spent up to now is      491.9 secs

     total energy              =    -735.82164476 Ry
     estimated scf accuracy    <       0.00018473 Ry

     total magnetization       =     3.44 Bohr mag/cell
     absolute magnetization    =     3.52 Bohr mag/cell
[tb_dev] Currently allocated     2.00E+00 Mbytes, locked:    0 /   6
[tb_pin] Currently allocated     0.00E+00 Mbytes, locked:    0 /   0

     iteration # 71     ecut=    65.00 Ry     beta= 0.40
     Davidson diagonalization with overlap

---- Real-time Memory Report at c_bands before calling an iterative solver
          3276 MiB given to the printing process from OS
         -1729 MiB allocation reported by mallinfo(arena+hblkhd)
         56608 MiB available memory on the node where the printing process lives
     GPU memory used/free/total (MiB): 2750 / 13530 / 16280
------------------
     ethr =  1.91E-07,  avg # of iterations =  2.5

     negative rho (up, down):  6.599E-02 6.598E-02

     total cpu time spent up to now is      497.6 secs

     total energy              =    -735.81989023 Ry
     estimated scf accuracy    <       0.00021671 Ry

     total magnetization       =     3.27 Bohr mag/cell
     absolute magnetization    =     3.35 Bohr mag/cell
[tb_dev] Currently allocated     2.00E+00 Mbytes, locked:    0 /   6
[tb_pin] Currently allocated     0.00E+00 Mbytes, locked:    0 /   0

     iteration # 72     ecut=    65.00 Ry     beta= 0.40
     Davidson diagonalization with overlap

---- Real-time Memory Report at c_bands before calling an iterative solver
          3287 MiB given to the printing process from OS
         -1718 MiB allocation reported by mallinfo(arena+hblkhd)
         56594 MiB available memory on the node where the printing process lives
     GPU memory used/free/total (MiB): 2750 / 13530 / 16280
------------------
     ethr =  1.91E-07,  avg # of iterations =  3.5

     negative rho (up, down):  6.600E-02 6.598E-02

     total cpu time spent up to now is      504.2 secs

     total energy              =    -735.82119279 Ry
     estimated scf accuracy    <       0.00020549 Ry

     total magnetization       =     3.55 Bohr mag/cell
     absolute magnetization    =     3.64 Bohr mag/cell
[tb_dev] Currently allocated     2.00E+00 Mbytes, locked:    0 /   6
[tb_pin] Currently allocated     0.00E+00 Mbytes, locked:    0 /   0

     iteration # 73     ecut=    65.00 Ry     beta= 0.40
     Davidson diagonalization with overlap

---- Real-time Memory Report at c_bands before calling an iterative solver
          3301 MiB given to the printing process from OS
         -1707 MiB allocation reported by mallinfo(arena+hblkhd)
         56587 MiB available memory on the node where the printing process lives
     GPU memory used/free/total (MiB): 2750 / 13530 / 16280
------------------
     ethr =  1.91E-07,  avg # of iterations =  2.3

     negative rho (up, down):  6.599E-02 6.598E-02

     total cpu time spent up to now is      509.9 secs

     total energy              =    -735.78265357 Ry
     estimated scf accuracy    <       0.00017543 Ry

     total magnetization       =     3.41 Bohr mag/cell
     absolute magnetization    =     3.49 Bohr mag/cell
[tb_dev] Currently allocated     2.00E+00 Mbytes, locked:    0 /   6
[tb_pin] Currently allocated     0.00E+00 Mbytes, locked:    0 /   0

     iteration # 74     ecut=    65.00 Ry     beta= 0.40
     Davidson diagonalization with overlap

---- Real-time Memory Report at c_bands before calling an iterative solver
          3312 MiB given to the printing process from OS
         -1696 MiB allocation reported by mallinfo(arena+hblkhd)
         56571 MiB available memory on the node where the printing process lives
     GPU memory used/free/total (MiB): 2750 / 13530 / 16280
------------------
     ethr =  1.91E-07,  avg # of iterations =  6.3

     negative rho (up, down):  6.600E-02 6.598E-02

     total cpu time spent up to now is      519.6 secs

     total energy              =    -735.78304277 Ry
     estimated scf accuracy    <       0.00250163 Ry

     total magnetization       =     4.66 Bohr mag/cell
     absolute magnetization    =     4.79 Bohr mag/cell
[tb_dev] Currently allocated     2.00E+00 Mbytes, locked:    0 /   6
[tb_pin] Currently allocated     0.00E+00 Mbytes, locked:    0 /   0

     iteration # 75     ecut=    65.00 Ry     beta= 0.40
     Davidson diagonalization with overlap

---- Real-time Memory Report at c_bands before calling an iterative solver
          3324 MiB given to the printing process from OS
         -1685 MiB allocation reported by mallinfo(arena+hblkhd)
         56566 MiB available memory on the node where the printing process lives
     GPU memory used/free/total (MiB): 2750 / 13530 / 16280
------------------
     ethr =  1.91E-07,  avg # of iterations =  6.9

     negative rho (up, down):  6.601E-02 6.597E-02

     total cpu time spent up to now is      530.2 secs

     total energy              =    -735.82408665 Ry
     estimated scf accuracy    <       0.00054058 Ry

     total magnetization       =     2.73 Bohr mag/cell
     absolute magnetization    =     2.82 Bohr mag/cell
[tb_dev] Currently allocated     2.00E+00 Mbytes, locked:    0 /   6
[tb_pin] Currently allocated     0.00E+00 Mbytes, locked:    0 /   0

     iteration # 76     ecut=    65.00 Ry     beta= 0.40
     Davidson diagonalization with overlap

---- Real-time Memory Report at c_bands before calling an iterative solver
          3336 MiB given to the printing process from OS
         -1669 MiB allocation reported by mallinfo(arena+hblkhd)
         56546 MiB available memory on the node where the printing process lives
     GPU memory used/free/total (MiB): 2750 / 13530 / 16280
------------------
     ethr =  1.91E-07,  avg # of iterations =  4.9

     negative rho (up, down):  6.599E-02 6.598E-02

     total cpu time spent up to now is      538.2 secs

     total energy              =    -735.78388989 Ry
     estimated scf accuracy    <       0.00228545 Ry

     total magnetization       =     1.96 Bohr mag/cell
     absolute magnetization    =     2.33 Bohr mag/cell
[tb_dev] Currently allocated     2.00E+00 Mbytes, locked:    0 /   6
[tb_pin] Currently allocated     0.00E+00 Mbytes, locked:    0 /   0

     iteration # 77     ecut=    65.00 Ry     beta= 0.40
     Davidson diagonalization with overlap

---- Real-time Memory Report at c_bands before calling an iterative solver
          3349 MiB given to the printing process from OS
         -1658 MiB allocation reported by mallinfo(arena+hblkhd)
         56538 MiB available memory on the node where the printing process lives
     GPU memory used/free/total (MiB): 2750 / 13530 / 16280
------------------
     ethr =  1.91E-07,  avg # of iterations =  6.1

     negative rho (up, down):  6.600E-02 6.598E-02

     total cpu time spent up to now is      547.8 secs

     total energy              =    -735.82013916 Ry
     estimated scf accuracy    <       0.00033421 Ry

     total magnetization       =     3.74 Bohr mag/cell
     absolute magnetization    =     3.83 Bohr mag/cell
[tb_dev] Currently allocated     2.00E+00 Mbytes, locked:    0 /   6
[tb_pin] Currently allocated     0.00E+00 Mbytes, locked:    0 /   0

     iteration # 78     ecut=    65.00 Ry     beta= 0.40
     Davidson diagonalization with overlap

---- Real-time Memory Report at c_bands before calling an iterative solver
          3363 MiB given to the printing process from OS
         -1646 MiB allocation reported by mallinfo(arena+hblkhd)
         56522 MiB available memory on the node where the printing process lives
     GPU memory used/free/total (MiB): 2750 / 13530 / 16280
------------------
     ethr =  1.91E-07,  avg # of iterations =  4.0

     negative rho (up, down):  6.599E-02 6.598E-02

     total cpu time spent up to now is      554.9 secs

     total energy              =    -735.81888394 Ry
     estimated scf accuracy    <       0.00018087 Ry

     total magnetization       =     3.50 Bohr mag/cell
     absolute magnetization    =     3.58 Bohr mag/cell
[tb_dev] Currently allocated     2.00E+00 Mbytes, locked:    0 /   6
[tb_pin] Currently allocated     0.00E+00 Mbytes, locked:    0 /   0

     iteration # 79     ecut=    65.00 Ry     beta= 0.40
     Davidson diagonalization with overlap

---- Real-time Memory Report at c_bands before calling an iterative solver
          3373 MiB given to the printing process from OS
         -1635 MiB allocation reported by mallinfo(arena+hblkhd)
         56514 MiB available memory on the node where the printing process lives
     GPU memory used/free/total (MiB): 2750 / 13530 / 16280
------------------
     ethr =  1.91E-07,  avg # of iterations =  4.0

     negative rho (up, down):  6.599E-02 6.598E-02

     total cpu time spent up to now is      561.8 secs

     total energy              =    -735.81971845 Ry
     estimated scf accuracy    <       0.00031318 Ry

     total magnetization       =     3.72 Bohr mag/cell
     absolute magnetization    =     3.81 Bohr mag/cell
[tb_dev] Currently allocated     2.00E+00 Mbytes, locked:    0 /   6
[tb_pin] Currently allocated     0.00E+00 Mbytes, locked:    0 /   0

     iteration # 80     ecut=    65.00 Ry     beta= 0.40
     Davidson diagonalization with overlap

---- Real-time Memory Report at c_bands before calling an iterative solver
          3384 MiB given to the printing process from OS
         -1624 MiB allocation reported by mallinfo(arena+hblkhd)
         56501 MiB available memory on the node where the printing process lives
     GPU memory used/free/total (MiB): 2750 / 13530 / 16280
------------------
     ethr =  1.91E-07,  avg # of iterations =  1.0

     negative rho (up, down):  6.600E-02 6.598E-02

     total cpu time spent up to now is      566.6 secs

     total energy              =    -735.81962037 Ry
     estimated scf accuracy    <       0.00031175 Ry

     total magnetization       =     3.72 Bohr mag/cell
     absolute magnetization    =     3.81 Bohr mag/cell

     End of self-consistent calculation

     convergence NOT achieved after  80 iterations: stopping

     Writing config to output data dir ./out/aiida.save/
 
     init_run     :     26.14s CPU      6.91s WALL (       1 calls)
     electrons    :   1131.85s CPU    558.92s WALL (       1 calls)

     Called by init_run:
     wfcinit      :      2.93s CPU      3.72s WALL (       1 calls)
                                        3.72s GPU  (       1 calls)
     wfcinit:atom :      0.04s CPU      0.06s WALL (      94 calls)
                                        0.06s GPU  (      94 calls)
     wfcinit:wfcr :      1.84s CPU      2.35s WALL (      94 calls)
                                        2.35s GPU  (      94 calls)
     potinit      :      9.99s CPU      0.96s WALL (       1 calls)
     hinit0       :      7.71s CPU      1.34s WALL (       1 calls)

     Called by electrons:
     c_bands      :    468.23s CPU    433.26s WALL (      80 calls)
     sum_band     :     64.09s CPU     69.67s WALL (      80 calls)
     v_of_rho     :     60.03s CPU      5.43s WALL (      81 calls)
     v_h          :     11.99s CPU      1.08s WALL (      81 calls)
     v_xc         :     48.04s CPU      4.35s WALL (      81 calls)
     newd         :     85.39s CPU      8.14s WALL (      81 calls)
                                        8.14s GPU  (      81 calls)
     PAW_pot      :    403.37s CPU     37.56s WALL (      81 calls)
     mix_rho      :     37.65s CPU      3.71s WALL (      80 calls)

     Called by c_bands:
     init_us_2    :     22.38s CPU     23.30s WALL (   15134 calls)
     init_us_2:gp :     22.10s CPU     23.05s WALL (   15134 calls)
     cegterg      :    411.46s CPU    388.21s WALL (    7520 calls)

     Called by sum_band:
     sum_band:wei :      0.36s CPU      0.36s WALL (      80 calls)
                                        0.36s GPU  (      80 calls)
     sum_band:loo :     52.30s CPU     57.65s WALL (      80 calls)
                                       57.65s GPU  (      80 calls)
     sum_band:buf :     13.28s CPU     13.89s WALL (    7520 calls)
                                       13.84s GPU  (    7520 calls)
     sum_band:ini :      9.66s CPU     11.32s WALL (    7520 calls)
                                       11.28s GPU  (    7520 calls)
     sum_band:cal :      0.21s CPU      1.85s WALL (    7520 calls)
                                        1.56s GPU  (    7520 calls)
     sum_band:bec :      1.95s CPU      2.14s WALL (    7520 calls)
                                        2.09s GPU  (    7520 calls)
     addusdens    :      7.89s CPU      8.11s WALL (      80 calls)
                                        8.11s GPU  (      80 calls)
     addusd:skk   :      0.04s CPU      0.04s WALL (     240 calls)
                                        0.04s GPU  (     240 calls)

     Called by *egterg:
     cdiaghg      :    158.04s CPU    162.01s WALL (   35938 calls)
                                      161.77s GPU  (   35938 calls)
     cegterg:over :      8.50s CPU      7.91s WALL (   28418 calls)
     cegterg:upda :     14.56s CPU     13.93s WALL (   28418 calls)
     cegterg:last :      5.78s CPU      5.40s WALL (   16669 calls)
     h_psi        :    200.80s CPU    178.67s WALL (   36032 calls)
                                      178.30s GPU  (   36032 calls)
     s_psi        :      5.27s CPU      9.49s WALL (   36032 calls)
                                        8.78s GPU  (   36032 calls)
     g_psi        :      0.23s CPU      1.06s WALL (   28418 calls)
                                        0.88s GPU  (   28418 calls)

     Called by h_psi:
     h_psi:calbec :      1.29s CPU      6.90s WALL (   36032 calls)
                                        6.67s GPU  (   36032 calls)
     vloc_psi     :    175.06s CPU    156.42s WALL (   36032 calls)
                                      156.20s GPU  (   36032 calls)
     add_vuspsi   :      9.54s CPU     12.42s WALL (   36032 calls)
                                       12.19s GPU  (   36032 calls)

     General routines
     calbec       :      1.08s CPU      0.99s WALL (   43552 calls)
     fft          :      2.61s CPU      0.70s WALL (    2023 calls)
                                        0.56s GPU  (    1861 calls)
     ffts         :      0.06s CPU      0.05s WALL (     322 calls)
                                        0.01s GPU  (     160 calls)
     fftw         :      4.61s CPU    122.41s WALL (  212996 calls)
                                      121.11s GPU  (  212996 calls)
     interpolate  :      6.93s CPU      0.61s WALL (     162 calls)
     davcio       :      0.35s CPU      0.50s WALL (     112 calls)
 
     Parallel routines

     PAW routines
     PAW_pot      :    403.37s CPU     37.56s WALL (      81 calls)
     PAW_symme    :      0.54s CPU      0.09s WALL (     161 calls)
 
     PWSCF        :  19m20.89s CPU   9m27.30s WALL

 
   This run was terminated on:  17:54:45  22Oct2023            

=------------------------------------------------------------------------------=
   JOB DONE.
=------------------------------------------------------------------------------=
