
     Program PWSCF v.7.2 starts on 30Nov2023 at  4:47:16 
        Git branch: develop
        Last git commit: 9055681be6fc8200e6fffe76ed5fda34c2696339
        Last git commit date: Wed Nov 8 16:29:39 2023 +0000
        Last git commit subject: Merge branch 'calbec_fix' into 'develop'

     This program is part of the open-source Quantum ESPRESSO suite
     for quantum simulation of materials; please cite
         "P. Giannozzi et al., J. Phys.:Condens. Matter 21 395502 (2009);
         "P. Giannozzi et al., J. Phys.:Condens. Matter 29 465901 (2017);
         "P. Giannozzi et al., J. Chem. Phys. 152 154105 (2020);
          URL http://www.quantum-espresso.org", 
     in publications or presentations arising from this work. More details at
     http://www.quantum-espresso.org/quote

     Parallel version (MPI), running on    56 processors

     MPI processes distributed on     1 nodes
     489307 MiB available memory on the printing compute node when the environment starts

     Reading input from aiida.in

     Current dimensions of program PWSCF are:
     Max number of different atomic species (ntypx) = 10
     Max number of k-points (npk) =  40000
     Max angular momentum in pseudopotentials (lmaxx) =  4
     file In.pbesol-dn-rrkjus_psl.0.2.2.UPF: wavefunction(s)  5S renormalized
     Message from routine setup:
     using ibrav=0 with symmetry is DISCOURAGED, use correct ibrav instead

     K-points division:     npool     =       7
     R & G space division:  proc/nbgrp/npool/nimage =       8
     Subspace diagonalization in iterative solution of the eigenvalue problem:
     a serial algorithm will be used


     Parallelization info
     --------------------
     sticks:   dense  smooth     PW     G-vecs:    dense   smooth      PW
     Min         256     128     37                 7546     2666     433
     Max         258     129     38                 7547     2667     436
     Sum        2053    1027    301                60375    21331    3479

     Using Slab Decomposition



     bravais-lattice index     =            0
     lattice parameter (alat)  =       8.5786  a.u.
     unit-cell volume          =     446.4180 (a.u.)^3
     number of atoms/cell      =            4
     number of atomic types    =            4
     number of electrons       =        52.00
     number of Kohn-Sham states=           35
     kinetic-energy cutoff     =      50.0000  Ry
     charge density cutoff     =     400.0000  Ry
     scf convergence threshold =      8.0E-10
     mixing beta               =       0.2000
     number of iterations used =           12  plain     mixing
     Exchange-correlation= SLA  PW   PSX  PSC
                           (   1   4  10   8   0   0   0)

     celldm(1)=   8.578649  celldm(2)=   0.000000  celldm(3)=   0.000000
     celldm(4)=   0.000000  celldm(5)=   0.000000  celldm(6)=   0.000000

     crystal axes: (cart. coord. in units of alat)
               a(1) = (   0.000000   0.707107   0.707107 )  
               a(2) = (   0.707107   0.000000   0.707107 )  
               a(3) = (   0.707107   0.707107   0.000000 )  

     reciprocal axes: (cart. coord. in units 2 pi/alat)
               b(1) = ( -0.707107  0.707107  0.707107 )  
               b(2) = (  0.707107 -0.707107  0.707107 )  
               b(3) = (  0.707107  0.707107 -0.707107 )  


     PseudoPot. # 1 for Cr read from file:
     ./pseudo/cr_pbesol_v1.5.uspp.F.UPF
     MD5 check sum: a621641e0be27168676a837af8893d0f
     Pseudo is Ultrasoft + core correction, Zval = 14.0
     Generated by new atomic code, or converted to UPF format
     Using radial grid of  857 points,  6 beta functions with: 
                l(1) =   0
                l(2) =   0
                l(3) =   1
                l(4) =   1
                l(5) =   2
                l(6) =   2
     Q(r) pseudized with  8 coefficients,  rinner =    0.950   0.950   0.950
                                                       0.950   0.950

     PseudoPot. # 2 for In read from file:
     ./pseudo/In.pbesol-dn-rrkjus_psl.0.2.2.UPF
     MD5 check sum: 2a3399a31491503da6b8c7d8e01e9843
     Pseudo is Ultrasoft + core correction, Zval = 13.0
     Generated using "atomic" code by A. Dal Corso  v.6.0 svn rev. 13079
     Using radial grid of 1241 points,  6 beta functions with: 
                l(1) =   0
                l(2) =   0
                l(3) =   1
                l(4) =   1
                l(5) =   2
                l(6) =   2
     Q(r) pseudized with 0 coefficients 


     PseudoPot. # 3 for V  read from file:
     ./pseudo/v_pbesol_v1.4.uspp.F.UPF
     MD5 check sum: 72fa7d0034c41d8adc50bbc8c632b9f9
     Pseudo is Ultrasoft + core correction, Zval = 13.0
     Generated by new atomic code, or converted to UPF format
     Using radial grid of  853 points,  6 beta functions with: 
                l(1) =   0
                l(2) =   0
                l(3) =   1
                l(4) =   1
                l(5) =   2
                l(6) =   2
     Q(r) pseudized with  8 coefficients,  rinner =    1.100   1.100   1.100
                                                       1.100   1.100

     PseudoPot. # 4 for Zr read from file:
     ./pseudo/zr_pbesol_v1.uspp.F.UPF
     MD5 check sum: f29f2a20533738a515abe666fee35838
     Pseudo is Ultrasoft + core correction, Zval = 12.0
     Generated by new atomic code, or converted to UPF format
     Using radial grid of  887 points,  6 beta functions with: 
                l(1) =   0
                l(2) =   0
                l(3) =   1
                l(4) =   1
                l(5) =   2
                l(6) =   2
     Q(r) pseudized with  6 coefficients,  rinner =    1.200   1.200   1.200
                                                       1.200   1.200

     atomic species   valence    mass     pseudopotential
     Cr               14.00    51.99610     Cr( 1.00)
     In               13.00   114.81800     In( 1.00)
     V                13.00    50.94150     V ( 1.00)
     Zr               12.00    91.22400     Zr( 1.00)

     Starting magnetic structure 
     atomic species   magnetization
     Cr              0.357
     In              0.100
     V               0.385
     Zr              0.417

     24 Sym. Ops. (no inversion) found


                                    s                        frac. trans.

      isym =  1     identity                                     

 cryst.   s( 1) = (     1          0          0      )
                  (     0          1          0      )
                  (     0          0          1      )

 cart.    s( 1) = (  1.0000000 -0.0000000  0.0000000 )
                  ( -0.0000000  1.0000000  0.0000000 )
                  ( -0.0000000  0.0000000  1.0000000 )


      isym =  2     180 deg rotation - cart. axis [0,0,1]        

 cryst.   s( 2) = (     0          1         -1      )
                  (     1          0         -1      )
                  (     0          0         -1      )

 cart.    s( 2) = ( -1.0000000  0.0000000  0.0000000 )
                  (  0.0000000 -1.0000000  0.0000000 )
                  (  0.0000000 -0.0000000  1.0000000 )


      isym =  3     180 deg rotation - cart. axis [0,1,0]        

 cryst.   s( 3) = (     0         -1          1      )
                  (     0         -1          0      )
                  (     1         -1          0      )

 cart.    s( 3) = ( -1.0000000 -0.0000000 -0.0000000 )
                  (  0.0000000  1.0000000 -0.0000000 )
                  (  0.0000000  0.0000000 -1.0000000 )


      isym =  4     180 deg rotation - cart. axis [1,0,0]        

 cryst.   s( 4) = (    -1          0          0      )
                  (    -1          0          1      )
                  (    -1          1          0      )

 cart.    s( 4) = (  1.0000000  0.0000000 -0.0000000 )
                  ( -0.0000000 -1.0000000 -0.0000000 )
                  ( -0.0000000 -0.0000000 -1.0000000 )


      isym =  5     120 deg rotation - cart. axis [-1,-1,-1]     

 cryst.   s( 5) = (     0          0          1      )
                  (     1          0          0      )
                  (     0          1          0      )

 cart.    s( 5) = (  0.0000000  1.0000000 -0.0000000 )
                  (  0.0000000 -0.0000000  1.0000000 )
                  (  1.0000000 -0.0000000  0.0000000 )


      isym =  6     120 deg rotation - cart. axis [-1,1,1]       

 cryst.   s( 6) = (     1         -1          0      )
                  (     0         -1          1      )
                  (     0         -1          0      )

 cart.    s( 6) = ( -0.0000000 -1.0000000 -0.0000000 )
                  ( -0.0000000  0.0000000  1.0000000 )
                  ( -1.0000000  0.0000000  0.0000000 )


      isym =  7     120 deg rotation - cart. axis [1,1,-1]       

 cryst.   s( 7) = (    -1          1          0      )
                  (    -1          0          0      )
                  (    -1          0          1      )

 cart.    s( 7) = ( -0.0000000  1.0000000  0.0000000 )
                  ( -0.0000000 -0.0000000 -1.0000000 )
                  ( -1.0000000 -0.0000000 -0.0000000 )


      isym =  8     120 deg rotation - cart. axis [1,-1,1]       

 cryst.   s( 8) = (     0          0         -1      )
                  (     0          1         -1      )
                  (     1          0         -1      )

 cart.    s( 8) = (  0.0000000 -1.0000000  0.0000000 )
                  (  0.0000000  0.0000000 -1.0000000 )
                  (  1.0000000  0.0000000 -0.0000000 )


      isym =  9     120 deg rotation - cart. axis [1,1,1]        

 cryst.   s( 9) = (     0          1          0      )
                  (     0          0          1      )
                  (     1          0          0      )

 cart.    s( 9) = ( -0.0000000  0.0000000  1.0000000 )
                  (  1.0000000  0.0000000 -0.0000000 )
                  (  0.0000000  1.0000000 -0.0000000 )


      isym = 10     120 deg rotation - cart. axis [-1,1,-1]      

 cryst.   s(10) = (    -1          0          1      )
                  (    -1          1          0      )
                  (    -1          0          0      )

 cart.    s(10) = (  0.0000000 -0.0000000  1.0000000 )
                  ( -1.0000000 -0.0000000 -0.0000000 )
                  ( -0.0000000 -1.0000000 -0.0000000 )


      isym = 11     120 deg rotation - cart. axis [1,-1,-1]      

 cryst.   s(11) = (     1          0         -1      )
                  (     0          0         -1      )
                  (     0          1         -1      )

 cart.    s(11) = (  0.0000000  0.0000000 -1.0000000 )
                  ( -1.0000000  0.0000000  0.0000000 )
                  ( -0.0000000  1.0000000  0.0000000 )


      isym = 12     120 deg rotation - cart. axis [-1,-1,1]      

 cryst.   s(12) = (     0         -1          0      )
                  (     1         -1          0      )
                  (     0         -1          1      )

 cart.    s(12) = ( -0.0000000 -0.0000000 -1.0000000 )
                  (  1.0000000 -0.0000000  0.0000000 )
                  (  0.0000000 -1.0000000  0.0000000 )


      isym = 13     inv. 180 deg rotation - cart. axis [1,1,0]   

 cryst.   s(13) = (     1          0         -1      )
                  (     0          1         -1      )
                  (     0          0         -1      )

 cart.    s(13) = (  0.0000000 -1.0000000  0.0000000 )
                  ( -1.0000000  0.0000000  0.0000000 )
                  ( -0.0000000  0.0000000  1.0000000 )


      isym = 14     inv. 180 deg rotation - cart. axis [1,-1,0]  

 cryst.   s(14) = (     0          1          0      )
                  (     1          0          0      )
                  (     0          0          1      )

 cart.    s(14) = ( -0.0000000  1.0000000  0.0000000 )
                  (  1.0000000 -0.0000000  0.0000000 )
                  (  0.0000000 -0.0000000  1.0000000 )


      isym = 15     inv.  90 deg rotation - cart. axis [0,0,-1]  

 cryst.   s(15) = (     0         -1          0      )
                  (     0         -1          1      )
                  (     1         -1          0      )

 cart.    s(15) = ( -0.0000000 -1.0000000 -0.0000000 )
                  (  1.0000000  0.0000000 -0.0000000 )
                  (  0.0000000  0.0000000 -1.0000000 )


      isym = 16     inv.  90 deg rotation - cart. axis [0,0,1]   

 cryst.   s(16) = (    -1          0          1      )
                  (    -1          0          0      )
                  (    -1          1          0      )

 cart.    s(16) = (  0.0000000  1.0000000 -0.0000000 )
                  ( -1.0000000 -0.0000000 -0.0000000 )
                  ( -0.0000000 -0.0000000 -1.0000000 )


      isym = 17     inv. 180 deg rotation - cart. axis [1,0,1]   

 cryst.   s(17) = (     1         -1          0      )
                  (     0         -1          0      )
                  (     0         -1          1      )

 cart.    s(17) = ( -0.0000000 -0.0000000 -1.0000000 )
                  ( -0.0000000  1.0000000  0.0000000 )
                  ( -1.0000000  0.0000000  0.0000000 )


      isym = 18     inv. 180 deg rotation - cart. axis [-1,0,1]  

 cryst.   s(18) = (     0          0          1      )
                  (     0          1          0      )
                  (     1          0          0      )

 cart.    s(18) = (  0.0000000 -0.0000000  1.0000000 )
                  (  0.0000000  1.0000000 -0.0000000 )
                  (  1.0000000  0.0000000 -0.0000000 )


      isym = 19     inv.  90 deg rotation - cart. axis [0,1,0]   

 cryst.   s(19) = (     0          0         -1      )
                  (     1          0         -1      )
                  (     0          1         -1      )

 cart.    s(19) = (  0.0000000  0.0000000 -1.0000000 )
                  (  0.0000000 -1.0000000  0.0000000 )
                  (  1.0000000 -0.0000000  0.0000000 )


      isym = 20     inv.  90 deg rotation - cart. axis [0,-1,0]  

 cryst.   s(20) = (    -1          1          0      )
                  (    -1          0          1      )
                  (    -1          0          0      )

 cart.    s(20) = ( -0.0000000  0.0000000  1.0000000 )
                  ( -0.0000000 -1.0000000 -0.0000000 )
                  ( -1.0000000 -0.0000000 -0.0000000 )


      isym = 21     inv. 180 deg rotation - cart. axis [0,1,1]   

 cryst.   s(21) = (    -1          0          0      )
                  (    -1          1          0      )
                  (    -1          0          1      )

 cart.    s(21) = (  1.0000000 -0.0000000  0.0000000 )
                  ( -0.0000000 -0.0000000 -1.0000000 )
                  ( -0.0000000 -1.0000000 -0.0000000 )


      isym = 22     inv. 180 deg rotation - cart. axis [0,1,-1]  

 cryst.   s(22) = (     1          0          0      )
                  (     0          0          1      )
                  (     0          1          0      )

 cart.    s(22) = (  1.0000000  0.0000000 -0.0000000 )
                  ( -0.0000000  0.0000000  1.0000000 )
                  ( -0.0000000  1.0000000  0.0000000 )


      isym = 23     inv.  90 deg rotation - cart. axis [-1,0,0]  

 cryst.   s(23) = (     0          1         -1      )
                  (     0          0         -1      )
                  (     1          0         -1      )

 cart.    s(23) = ( -1.0000000  0.0000000  0.0000000 )
                  (  0.0000000  0.0000000 -1.0000000 )
                  (  0.0000000  1.0000000 -0.0000000 )


      isym = 24     inv.  90 deg rotation - cart. axis [1,0,0]   

 cryst.   s(24) = (     0         -1          1      )
                  (     1         -1          0      )
                  (     0         -1          0      )

 cart.    s(24) = ( -1.0000000 -0.0000000 -0.0000000 )
                  (  0.0000000 -0.0000000  1.0000000 )
                  (  0.0000000 -1.0000000  0.0000000 )


   Cartesian axes

     site n.     atom                  positions (alat units)
         1        Zr     tau(   1) = (   0.3535534   0.3535534   0.3535534  )
         2        V      tau(   2) = (   0.7071068   0.0000000   0.0000000  )
         3        Cr     tau(   3) = (   0.0000000   0.0000000   0.0000000  )
         4        In     tau(   4) = (   0.3535534   0.3535534   1.0606602  )

   Crystallographic axes

     site n.     atom                  positions (cryst. coord.)
         1        Zr     tau(   1) = (  0.2500000  0.2500000  0.2500000  )
         2        V      tau(   2) = ( -0.5000000  0.5000000  0.5000000  )
         3        Cr     tau(   3) = (  0.0000000  0.0000000  0.0000000  )
         4        In     tau(   4) = (  0.7500000  0.7500000 -0.2500000  )

     number of k points=    72  Marzari-Vanderbilt smearing, width (Ry)=  0.0200
                       cart. coord. in units 2pi/alat
        k(    1) = (   0.0000000   0.0000000   0.0000000), wk =   0.0005787
        k(    2) = (   0.0589256   0.0589256  -0.0589256), wk =   0.0046296
        k(    3) = (   0.1178511   0.1178511  -0.1178511), wk =   0.0046296
        k(    4) = (   0.1767767   0.1767767  -0.1767767), wk =   0.0046296
        k(    5) = (   0.2357023   0.2357023  -0.2357023), wk =   0.0046296
        k(    6) = (   0.2946278   0.2946278  -0.2946278), wk =   0.0046296
        k(    7) = (  -0.3535534  -0.3535534   0.3535534), wk =   0.0023148
        k(    8) = (   0.1178511   0.0000000  -0.0000000), wk =   0.0034722
        k(    9) = (   0.1767767   0.0589256  -0.0589256), wk =   0.0138889
        k(   10) = (   0.2357023   0.1178511  -0.1178511), wk =   0.0138889
        k(   11) = (   0.2946278   0.1767767  -0.1767767), wk =   0.0138889
        k(   12) = (   0.3535534   0.2357023  -0.2357023), wk =   0.0138889
        k(   13) = (  -0.2946278  -0.4124790   0.4124790), wk =   0.0138889
        k(   14) = (  -0.2357023  -0.3535534   0.3535534), wk =   0.0138889
        k(   15) = (  -0.1767767  -0.2946278   0.2946278), wk =   0.0138889
        k(   16) = (  -0.1178511  -0.2357023   0.2357023), wk =   0.0138889
        k(   17) = (  -0.0589256  -0.1767767   0.1767767), wk =   0.0138889
        k(   18) = (  -0.0000000  -0.1178511   0.1178511), wk =   0.0069444
        k(   19) = (   0.2357023   0.0000000  -0.0000000), wk =   0.0034722
        k(   20) = (   0.2946278   0.0589256  -0.0589256), wk =   0.0138889
        k(   21) = (   0.3535534   0.1178511  -0.1178511), wk =   0.0138889
        k(   22) = (   0.4124790   0.1767767  -0.1767767), wk =   0.0138889
        k(   23) = (  -0.2357023  -0.4714045   0.4714045), wk =   0.0138889
        k(   24) = (  -0.1767767  -0.4124790   0.4124790), wk =   0.0138889
        k(   25) = (  -0.1178511  -0.3535534   0.3535534), wk =   0.0138889
        k(   26) = (  -0.0589256  -0.2946278   0.2946278), wk =   0.0138889
        k(   27) = (   0.0000000  -0.2357023   0.2357023), wk =   0.0069444
        k(   28) = (   0.3535534   0.0000000   0.0000000), wk =   0.0034722
        k(   29) = (   0.4124790   0.0589256  -0.0589256), wk =   0.0138889
        k(   30) = (   0.4714045   0.1178511  -0.1178511), wk =   0.0138889
        k(   31) = (  -0.1767767  -0.5303301   0.5303301), wk =   0.0138889
        k(   32) = (  -0.1178511  -0.4714045   0.4714045), wk =   0.0138889
        k(   33) = (  -0.0589256  -0.4124790   0.4124790), wk =   0.0138889
        k(   34) = (   0.0000000  -0.3535534   0.3535534), wk =   0.0069444
        k(   35) = (   0.4714045   0.0000000  -0.0000000), wk =   0.0034722
        k(   36) = (   0.5303301   0.0589256  -0.0589256), wk =   0.0138889
        k(   37) = (  -0.1178511  -0.5892557   0.5892557), wk =   0.0138889
        k(   38) = (  -0.0589256  -0.5303301   0.5303301), wk =   0.0138889
        k(   39) = (  -0.0000000  -0.4714045   0.4714045), wk =   0.0069444
        k(   40) = (   0.5892557   0.0000000  -0.0000000), wk =   0.0034722
        k(   41) = (  -0.0589256  -0.6481812   0.6481812), wk =   0.0138889
        k(   42) = (   0.0000000  -0.5892557   0.5892557), wk =   0.0069444
        k(   43) = (  -0.7071068   0.0000000   0.0000000), wk =   0.0017361
        k(   44) = (   0.2357023   0.1178511   0.0000000), wk =   0.0138889
        k(   45) = (   0.2946278   0.1767767  -0.0589256), wk =   0.0277778
        k(   46) = (   0.3535534   0.2357023  -0.1178511), wk =   0.0277778
        k(   47) = (  -0.2946278  -0.4124790   0.5303301), wk =   0.0277778
        k(   48) = (  -0.2357023  -0.3535534   0.4714045), wk =   0.0138889
        k(   49) = (   0.3535534   0.1178511   0.0000000), wk =   0.0138889
        k(   50) = (   0.4124790   0.1767767  -0.0589256), wk =   0.0277778
        k(   51) = (  -0.2357023  -0.4714045   0.5892557), wk =   0.0277778
        k(   52) = (  -0.1767767  -0.4124790   0.5303301), wk =   0.0277778
        k(   53) = (  -0.1178511  -0.3535534   0.4714045), wk =   0.0277778
        k(   54) = (  -0.0589256  -0.2946278   0.4124790), wk =   0.0277778
        k(   55) = (   0.0000000  -0.2357023   0.3535534), wk =   0.0138889
        k(   56) = (   0.4714045   0.1178511  -0.0000000), wk =   0.0138889
        k(   57) = (  -0.1767767  -0.5303301   0.6481812), wk =   0.0277778
        k(   58) = (  -0.1178511  -0.4714045   0.5892557), wk =   0.0277778
        k(   59) = (  -0.0589256  -0.4124790   0.5303301), wk =   0.0277778
        k(   60) = (  -0.0000000  -0.3535534   0.4714045), wk =   0.0138889
        k(   61) = (  -0.1178511  -0.5892557   0.7071068), wk =   0.0138889
        k(   62) = (  -0.0589256  -0.5303301   0.6481812), wk =   0.0277778
        k(   63) = (  -0.0000000  -0.4714045   0.5892557), wk =   0.0138889
        k(   64) = (  -0.7071068   0.1178511  -0.0000000), wk =   0.0069444
        k(   65) = (  -0.2357023  -0.4714045   0.7071068), wk =   0.0138889
        k(   66) = (  -0.1767767  -0.4124790   0.6481812), wk =   0.0277778
        k(   67) = (  -0.1178511  -0.3535534   0.5892557), wk =   0.0138889
        k(   68) = (  -0.1178511  -0.4714045   0.7071068), wk =   0.0138889
        k(   69) = (  -0.0589256  -0.4124790   0.6481812), wk =   0.0277778
        k(   70) = (   0.0000000  -0.3535534   0.5892557), wk =   0.0138889
        k(   71) = (  -0.7071068   0.2357023   0.0000000), wk =   0.0069444
        k(   72) = (  -0.7071068   0.3535534   0.0000000), wk =   0.0034722

                       cryst. coord.
        k(    1) = (   0.0000000   0.0000000   0.0000000), wk =   0.0005787
        k(    2) = (   0.0000000   0.0000000   0.0833333), wk =   0.0046296
        k(    3) = (   0.0000000   0.0000000   0.1666667), wk =   0.0046296
        k(    4) = (   0.0000000   0.0000000   0.2500000), wk =   0.0046296
        k(    5) = (   0.0000000   0.0000000   0.3333333), wk =   0.0046296
        k(    6) = (  -0.0000000  -0.0000000   0.4166667), wk =   0.0046296
        k(    7) = (  -0.0000000  -0.0000000  -0.5000000), wk =   0.0023148
        k(    8) = (  -0.0000000   0.0833333   0.0833333), wk =   0.0034722
        k(    9) = (   0.0000000   0.0833333   0.1666667), wk =   0.0138889
        k(   10) = (  -0.0000000   0.0833333   0.2500000), wk =   0.0138889
        k(   11) = (   0.0000000   0.0833333   0.3333333), wk =   0.0138889
        k(   12) = (  -0.0000000   0.0833333   0.4166667), wk =   0.0138889
        k(   13) = (  -0.0000000   0.0833333  -0.5000000), wk =   0.0138889
        k(   14) = (  -0.0000000   0.0833333  -0.4166667), wk =   0.0138889
        k(   15) = (  -0.0000000   0.0833333  -0.3333333), wk =   0.0138889
        k(   16) = (  -0.0000000   0.0833333  -0.2500000), wk =   0.0138889
        k(   17) = (  -0.0000000   0.0833333  -0.1666667), wk =   0.0138889
        k(   18) = (   0.0000000   0.0833333  -0.0833333), wk =   0.0069444
        k(   19) = (  -0.0000000   0.1666667   0.1666667), wk =   0.0034722
        k(   20) = (  -0.0000000   0.1666667   0.2500000), wk =   0.0138889
        k(   21) = (   0.0000000   0.1666667   0.3333333), wk =   0.0138889
        k(   22) = (  -0.0000000   0.1666667   0.4166667), wk =   0.0138889
        k(   23) = (  -0.0000000   0.1666667  -0.5000000), wk =   0.0138889
        k(   24) = (  -0.0000000   0.1666667  -0.4166667), wk =   0.0138889
        k(   25) = (  -0.0000000   0.1666667  -0.3333333), wk =   0.0138889
        k(   26) = (   0.0000000   0.1666667  -0.2500000), wk =   0.0138889
        k(   27) = (  -0.0000000   0.1666667  -0.1666667), wk =   0.0069444
        k(   28) = (   0.0000000   0.2500000   0.2500000), wk =   0.0034722
        k(   29) = (   0.0000000   0.2500000   0.3333333), wk =   0.0138889
        k(   30) = (  -0.0000000   0.2500000   0.4166667), wk =   0.0138889
        k(   31) = (   0.0000000   0.2500000  -0.5000000), wk =   0.0138889
        k(   32) = (  -0.0000000   0.2500000  -0.4166667), wk =   0.0138889
        k(   33) = (  -0.0000000   0.2500000  -0.3333333), wk =   0.0138889
        k(   34) = (  -0.0000000   0.2500000  -0.2500000), wk =   0.0069444
        k(   35) = (  -0.0000000   0.3333333   0.3333333), wk =   0.0034722
        k(   36) = (  -0.0000000   0.3333333   0.4166667), wk =   0.0138889
        k(   37) = (   0.0000000   0.3333333  -0.5000000), wk =   0.0138889
        k(   38) = (  -0.0000000   0.3333333  -0.4166667), wk =   0.0138889
        k(   39) = (   0.0000000   0.3333333  -0.3333333), wk =   0.0069444
        k(   40) = (   0.0000000   0.4166667   0.4166667), wk =   0.0034722
        k(   41) = (  -0.0000000   0.4166667  -0.5000000), wk =   0.0138889
        k(   42) = (   0.0000000   0.4166667  -0.4166667), wk =   0.0069444
        k(   43) = (   0.0000000  -0.5000000  -0.5000000), wk =   0.0017361
        k(   44) = (   0.0833333   0.1666667   0.2500000), wk =   0.0138889
        k(   45) = (   0.0833333   0.1666667   0.3333333), wk =   0.0277778
        k(   46) = (   0.0833333   0.1666667   0.4166667), wk =   0.0277778
        k(   47) = (   0.0833333   0.1666667  -0.5000000), wk =   0.0277778
        k(   48) = (   0.0833333   0.1666667  -0.4166667), wk =   0.0138889
        k(   49) = (   0.0833333   0.2500000   0.3333333), wk =   0.0138889
        k(   50) = (   0.0833333   0.2500000   0.4166667), wk =   0.0277778
        k(   51) = (   0.0833333   0.2500000  -0.5000000), wk =   0.0277778
        k(   52) = (   0.0833333   0.2500000  -0.4166667), wk =   0.0277778
        k(   53) = (   0.0833333   0.2500000  -0.3333333), wk =   0.0277778
        k(   54) = (   0.0833333   0.2500000  -0.2500000), wk =   0.0277778
        k(   55) = (   0.0833333   0.2500000  -0.1666667), wk =   0.0138889
        k(   56) = (   0.0833333   0.3333333   0.4166667), wk =   0.0138889
        k(   57) = (   0.0833333   0.3333333  -0.5000000), wk =   0.0277778
        k(   58) = (   0.0833333   0.3333333  -0.4166667), wk =   0.0277778
        k(   59) = (   0.0833333   0.3333333  -0.3333333), wk =   0.0277778
        k(   60) = (   0.0833333   0.3333333  -0.2500000), wk =   0.0138889
        k(   61) = (   0.0833333   0.4166667  -0.5000000), wk =   0.0138889
        k(   62) = (   0.0833333   0.4166667  -0.4166667), wk =   0.0277778
        k(   63) = (   0.0833333   0.4166667  -0.3333333), wk =   0.0138889
        k(   64) = (   0.0833333  -0.5000000  -0.4166667), wk =   0.0069444
        k(   65) = (   0.1666667   0.3333333  -0.5000000), wk =   0.0138889
        k(   66) = (   0.1666667   0.3333333  -0.4166667), wk =   0.0277778
        k(   67) = (   0.1666667   0.3333333  -0.3333333), wk =   0.0138889
        k(   68) = (   0.1666667   0.4166667  -0.4166667), wk =   0.0138889
        k(   69) = (   0.1666667   0.4166667  -0.3333333), wk =   0.0277778
        k(   70) = (   0.1666667   0.4166667  -0.2500000), wk =   0.0138889
        k(   71) = (   0.1666667  -0.5000000  -0.3333333), wk =   0.0069444
        k(   72) = (   0.2500000  -0.5000000  -0.2500000), wk =   0.0034722

     Dense  grid:    60375 G-vectors     FFT dimensions: (  60,  60,  60)

     Smooth grid:    21331 G-vectors     FFT dimensions: (  40,  40,  40)

     Dynamical RAM for                 wfc:       0.18 MB

     Dynamical RAM for     wfc (w. buffer):       3.91 MB

     Dynamical RAM for           str. fact:       0.46 MB

     Dynamical RAM for           local pot:       0.00 MB

     Dynamical RAM for          nlocal pot:       0.37 MB

     Dynamical RAM for                qrad:       6.42 MB

     Dynamical RAM for          rho,v,vnew:       2.01 MB

     Dynamical RAM for               rhoin:       0.67 MB

     Dynamical RAM for            rho*nmix:       5.53 MB

     Dynamical RAM for           G-vectors:       0.45 MB

     Dynamical RAM for          h,s,v(r/c):       0.06 MB

     Dynamical RAM for          <psi|beta>:       0.04 MB

     Dynamical RAM for      wfcinit/wfcrot:       0.47 MB

     Dynamical RAM for           addusdens:       3.29 MB

     Dynamical RAM for          addusforce:       3.20 MB

     Dynamical RAM for         addusstress:       3.43 MB

     Estimated static dynamical RAM per process >      16.19 MB

     Estimated max dynamical RAM per process >      25.14 MB

     Estimated total dynamical RAM >       1.12 GB

     Check: negative core charge=   -0.000002
     Generating pointlists ...
     new r_m :   0.2526 (alat units)  2.1670 (a.u.) for type    1
     new r_m :   0.2526 (alat units)  2.1670 (a.u.) for type    2
     new r_m :   0.2526 (alat units)  2.1670 (a.u.) for type    3
     new r_m :   0.2526 (alat units)  2.1670 (a.u.) for type    4

     The initial density is read from file :
     ./out/aiida.save/charge-density


     negative rho (up, down):  3.116E-02 3.331E-02
     Starting wfcs are   42 randomized atomic wfcs

     total cpu time spent up to now is        1.9 secs

     per-process dynamical memory:    30.2 Mb

     Self-consistent Calculation

     iteration #  1     ecut=    50.00 Ry     beta= 0.20
     CG style diagonalization

---- Real-time Memory Report at c_bands before calling an iterative solver
            67 MiB given to the printing process from OS
            29 MiB allocation reported by mallinfo(arena+hblkhd)
        487664 MiB available memory on the node where the printing process lives
------------------
     c_bands:  4 eigenvalues not converged
     c_bands:  3 eigenvalues not converged
     c_bands:  1 eigenvalues not converged
     c_bands:  3 eigenvalues not converged
     c_bands:  2 eigenvalues not converged
     c_bands:  2 eigenvalues not converged
     c_bands:  1 eigenvalues not converged
     c_bands:  5 eigenvalues not converged
     c_bands:  3 eigenvalues not converged
     c_bands:  3 eigenvalues not converged
     c_bands:  2 eigenvalues not converged
     c_bands:  3 eigenvalues not converged
     c_bands:  5 eigenvalues not converged
     c_bands:  5 eigenvalues not converged
     c_bands:  5 eigenvalues not converged
     c_bands:  4 eigenvalues not converged
     c_bands:  4 eigenvalues not converged
     c_bands:  4 eigenvalues not converged
     ethr =  1.00E-05,  avg # of iterations = 10.7

     negative rho (up, down):  3.117E-02 3.326E-02

     total cpu time spent up to now is        6.0 secs

     total energy              =    -563.82707226 Ry
     estimated scf accuracy    <       0.00317291 Ry

     total magnetization       =     3.14 Bohr mag/cell
     absolute magnetization    =     3.46 Bohr mag/cell

     iteration #  2     ecut=    50.00 Ry     beta= 0.20
     CG style diagonalization

---- Real-time Memory Report at c_bands before calling an iterative solver
            72 MiB given to the printing process from OS
            34 MiB allocation reported by mallinfo(arena+hblkhd)
        487275 MiB available memory on the node where the printing process lives
------------------
     ethr =  6.10E-06,  avg # of iterations =  3.3

     negative rho (up, down):  3.117E-02 3.324E-02

     total cpu time spent up to now is        7.0 secs

     total energy              =    -563.82748024 Ry
     estimated scf accuracy    <       0.03424356 Ry

     total magnetization       =     2.86 Bohr mag/cell
     absolute magnetization    =     3.25 Bohr mag/cell

     iteration #  3     ecut=    50.00 Ry     beta= 0.20
     CG style diagonalization

---- Real-time Memory Report at c_bands before calling an iterative solver
            73 MiB given to the printing process from OS
            34 MiB allocation reported by mallinfo(arena+hblkhd)
        487269 MiB available memory on the node where the printing process lives
------------------
     ethr =  6.10E-06,  avg # of iterations =  3.1

     negative rho (up, down):  3.117E-02 3.322E-02

     total cpu time spent up to now is        8.0 secs

     total energy              =    -563.82871535 Ry
     estimated scf accuracy    <       0.00157324 Ry

     total magnetization       =     3.00 Bohr mag/cell
     absolute magnetization    =     3.34 Bohr mag/cell

     iteration #  4     ecut=    50.00 Ry     beta= 0.20
     CG style diagonalization

---- Real-time Memory Report at c_bands before calling an iterative solver
            74 MiB given to the printing process from OS
            35 MiB allocation reported by mallinfo(arena+hblkhd)
        487264 MiB available memory on the node where the printing process lives
------------------
     ethr =  3.03E-06,  avg # of iterations =  3.0

     negative rho (up, down):  3.120E-02 3.293E-02

     total cpu time spent up to now is        8.9 secs

     total energy              =    -563.82974434 Ry
     estimated scf accuracy    <       0.00141094 Ry

     total magnetization       =     2.99 Bohr mag/cell
     absolute magnetization    =     3.33 Bohr mag/cell

     iteration #  5     ecut=    50.00 Ry     beta= 0.20
     CG style diagonalization

---- Real-time Memory Report at c_bands before calling an iterative solver
            74 MiB given to the printing process from OS
            35 MiB allocation reported by mallinfo(arena+hblkhd)
        487261 MiB available memory on the node where the printing process lives
------------------
     ethr =  2.71E-06,  avg # of iterations =  3.3

     negative rho (up, down):  3.124E-02 3.252E-02

     total cpu time spent up to now is       10.0 secs

     total energy              =    -563.83109680 Ry
     estimated scf accuracy    <       0.00084503 Ry

     total magnetization       =     2.78 Bohr mag/cell
     absolute magnetization    =     3.15 Bohr mag/cell

     iteration #  6     ecut=    50.00 Ry     beta= 0.20
     CG style diagonalization

---- Real-time Memory Report at c_bands before calling an iterative solver
            74 MiB given to the printing process from OS
            35 MiB allocation reported by mallinfo(arena+hblkhd)
        487259 MiB available memory on the node where the printing process lives
------------------
     ethr =  1.63E-06,  avg # of iterations =  3.7

     negative rho (up, down):  3.115E-02 3.382E-02

     total cpu time spent up to now is       11.2 secs

     total energy              =    -563.79848921 Ry
     estimated scf accuracy    <       0.00128381 Ry

     total magnetization       =     2.29 Bohr mag/cell
     absolute magnetization    =     2.78 Bohr mag/cell

     iteration #  7     ecut=    50.00 Ry     beta= 0.20
     CG style diagonalization

---- Real-time Memory Report at c_bands before calling an iterative solver
            74 MiB given to the printing process from OS
            35 MiB allocation reported by mallinfo(arena+hblkhd)
        487253 MiB available memory on the node where the printing process lives
------------------
     ethr =  1.63E-06,  avg # of iterations =  4.6

     negative rho (up, down):  3.118E-02 3.312E-02

     total cpu time spent up to now is       12.8 secs

     total energy              =    -563.82447363 Ry
     estimated scf accuracy    <       0.00425528 Ry

     total magnetization       =     3.55 Bohr mag/cell
     absolute magnetization    =     3.80 Bohr mag/cell

     iteration #  8     ecut=    50.00 Ry     beta= 0.20
     CG style diagonalization

---- Real-time Memory Report at c_bands before calling an iterative solver
            74 MiB given to the printing process from OS
            35 MiB allocation reported by mallinfo(arena+hblkhd)
        487250 MiB available memory on the node where the printing process lives
------------------
     ethr =  1.63E-06,  avg # of iterations =  3.8

     negative rho (up, down):  3.118E-02 3.295E-02

     total cpu time spent up to now is       14.1 secs

     total energy              =    -563.83039497 Ry
     estimated scf accuracy    <       0.00168122 Ry

     total magnetization       =     2.97 Bohr mag/cell
     absolute magnetization    =     3.31 Bohr mag/cell

     iteration #  9     ecut=    50.00 Ry     beta= 0.20
     CG style diagonalization

---- Real-time Memory Report at c_bands before calling an iterative solver
            74 MiB given to the printing process from OS
            35 MiB allocation reported by mallinfo(arena+hblkhd)
        487247 MiB available memory on the node where the printing process lives
------------------
     ethr =  1.63E-06,  avg # of iterations =  3.2

     negative rho (up, down):  3.119E-02 3.290E-02

     total cpu time spent up to now is       15.1 secs

     total energy              =    -563.83113950 Ry
     estimated scf accuracy    <       0.00160856 Ry

     total magnetization       =     2.82 Bohr mag/cell
     absolute magnetization    =     3.19 Bohr mag/cell

     iteration # 10     ecut=    50.00 Ry     beta= 0.20
     CG style diagonalization

---- Real-time Memory Report at c_bands before calling an iterative solver
            75 MiB given to the printing process from OS
            36 MiB allocation reported by mallinfo(arena+hblkhd)
        487245 MiB available memory on the node where the printing process lives
------------------
     ethr =  1.63E-06,  avg # of iterations =  3.0

     negative rho (up, down):  3.119E-02 3.279E-02

     total cpu time spent up to now is       16.0 secs

     total energy              =    -563.83182606 Ry
     estimated scf accuracy    <       0.00160802 Ry

     total magnetization       =     2.76 Bohr mag/cell
     absolute magnetization    =     3.15 Bohr mag/cell

     iteration # 11     ecut=    50.00 Ry     beta= 0.20
     CG style diagonalization

---- Real-time Memory Report at c_bands before calling an iterative solver
            75 MiB given to the printing process from OS
            36 MiB allocation reported by mallinfo(arena+hblkhd)
        487237 MiB available memory on the node where the printing process lives
------------------
     ethr =  1.63E-06,  avg # of iterations =  3.1

     negative rho (up, down):  3.118E-02 3.296E-02

     total cpu time spent up to now is       16.9 secs

     total energy              =    -563.83023771 Ry
     estimated scf accuracy    <       0.00173807 Ry

     total magnetization       =     2.65 Bohr mag/cell
     absolute magnetization    =     3.06 Bohr mag/cell

     iteration # 12     ecut=    50.00 Ry     beta= 0.20
     CG style diagonalization

---- Real-time Memory Report at c_bands before calling an iterative solver
            75 MiB given to the printing process from OS
            36 MiB allocation reported by mallinfo(arena+hblkhd)
        487234 MiB available memory on the node where the printing process lives
------------------
     ethr =  1.63E-06,  avg # of iterations =  3.1

     negative rho (up, down):  3.117E-02 3.309E-02

     total cpu time spent up to now is       17.9 secs

     total energy              =    -563.82951959 Ry
     estimated scf accuracy    <       0.00163183 Ry

     total magnetization       =     2.83 Bohr mag/cell
     absolute magnetization    =     3.19 Bohr mag/cell

     iteration # 13     ecut=    50.00 Ry     beta= 0.20
     CG style diagonalization

---- Real-time Memory Report at c_bands before calling an iterative solver
            75 MiB given to the printing process from OS
            36 MiB allocation reported by mallinfo(arena+hblkhd)
        487233 MiB available memory on the node where the printing process lives
------------------
     ethr =  1.63E-06,  avg # of iterations =  3.1

     negative rho (up, down):  3.114E-02 3.357E-02

     total cpu time spent up to now is       18.9 secs

     total energy              =    -563.82241707 Ry
     estimated scf accuracy    <       0.00170014 Ry

     total magnetization       =     2.94 Bohr mag/cell
     absolute magnetization    =     3.28 Bohr mag/cell

     iteration # 14     ecut=    50.00 Ry     beta= 0.20
     CG style diagonalization

---- Real-time Memory Report at c_bands before calling an iterative solver
            75 MiB given to the printing process from OS
            36 MiB allocation reported by mallinfo(arena+hblkhd)
        487229 MiB available memory on the node where the printing process lives
------------------
     ethr =  1.63E-06,  avg # of iterations =  3.7

     negative rho (up, down):  3.116E-02 3.313E-02

     total cpu time spent up to now is       20.2 secs

     total energy              =    -563.82691292 Ry
     estimated scf accuracy    <       0.00244329 Ry

     total magnetization       =     3.36 Bohr mag/cell
     absolute magnetization    =     3.62 Bohr mag/cell

     iteration # 15     ecut=    50.00 Ry     beta= 0.20
     CG style diagonalization

---- Real-time Memory Report at c_bands before calling an iterative solver
            76 MiB given to the printing process from OS
            36 MiB allocation reported by mallinfo(arena+hblkhd)
        487225 MiB available memory on the node where the printing process lives
------------------
     ethr =  1.63E-06,  avg # of iterations =  3.6

     negative rho (up, down):  3.116E-02 3.330E-02

     total cpu time spent up to now is       21.3 secs

     total energy              =    -563.82807016 Ry
     estimated scf accuracy    <       0.00150639 Ry

     total magnetization       =     2.97 Bohr mag/cell
     absolute magnetization    =     3.30 Bohr mag/cell

     iteration # 16     ecut=    50.00 Ry     beta= 0.20
     CG style diagonalization

---- Real-time Memory Report at c_bands before calling an iterative solver
            76 MiB given to the printing process from OS
            36 MiB allocation reported by mallinfo(arena+hblkhd)
        487224 MiB available memory on the node where the printing process lives
------------------
     ethr =  1.63E-06,  avg # of iterations =  3.1

     negative rho (up, down):  3.121E-02 3.276E-02

     total cpu time spent up to now is       22.3 secs

     total energy              =    -563.82779674 Ry
     estimated scf accuracy    <       0.00171015 Ry

     total magnetization       =     3.11 Bohr mag/cell
     absolute magnetization    =     3.41 Bohr mag/cell

     iteration # 17     ecut=    50.00 Ry     beta= 0.20
     CG style diagonalization

---- Real-time Memory Report at c_bands before calling an iterative solver
            76 MiB given to the printing process from OS
            36 MiB allocation reported by mallinfo(arena+hblkhd)
        487224 MiB available memory on the node where the printing process lives
------------------
     ethr =  1.63E-06,  avg # of iterations =  3.8

     negative rho (up, down):  3.126E-02 3.261E-02

     total cpu time spent up to now is       23.6 secs

     total energy              =    -563.83182386 Ry
     estimated scf accuracy    <       0.00168540 Ry

     total magnetization       =     2.54 Bohr mag/cell
     absolute magnetization    =     3.01 Bohr mag/cell

     iteration # 18     ecut=    50.00 Ry     beta= 0.20
     CG style diagonalization

---- Real-time Memory Report at c_bands before calling an iterative solver
            76 MiB given to the printing process from OS
            36 MiB allocation reported by mallinfo(arena+hblkhd)
        487224 MiB available memory on the node where the printing process lives
------------------
     c_bands:  1 eigenvalues not converged
     ethr =  1.63E-06,  avg # of iterations =  4.1

     negative rho (up, down):  3.115E-02 3.376E-02

     total cpu time spent up to now is       24.9 secs

     total energy              =    -563.77562835 Ry
     estimated scf accuracy    <       0.00635278 Ry

     total magnetization       =     1.79 Bohr mag/cell
     absolute magnetization    =     2.69 Bohr mag/cell

     iteration # 19     ecut=    50.00 Ry     beta= 0.20
     CG style diagonalization

---- Real-time Memory Report at c_bands before calling an iterative solver
            76 MiB given to the printing process from OS
            36 MiB allocation reported by mallinfo(arena+hblkhd)
        487222 MiB available memory on the node where the printing process lives
------------------
     ethr =  1.63E-06,  avg # of iterations =  5.0

     negative rho (up, down):  3.116E-02 3.443E-02

     total cpu time spent up to now is       26.6 secs

     total energy              =    -563.81010717 Ry
     estimated scf accuracy    <       0.00385609 Ry

     total magnetization       =     3.49 Bohr mag/cell
     absolute magnetization    =     3.74 Bohr mag/cell

     iteration # 20     ecut=    50.00 Ry     beta= 0.20
     CG style diagonalization

---- Real-time Memory Report at c_bands before calling an iterative solver
            76 MiB given to the printing process from OS
            36 MiB allocation reported by mallinfo(arena+hblkhd)
        487222 MiB available memory on the node where the printing process lives
------------------
     ethr =  1.63E-06,  avg # of iterations =  4.2

     negative rho (up, down):  3.116E-02 3.348E-02

     total cpu time spent up to now is       28.1 secs

     total energy              =    -563.81800262 Ry
     estimated scf accuracy    <       0.00803982 Ry

     total magnetization       =     3.97 Bohr mag/cell
     absolute magnetization    =     4.17 Bohr mag/cell

     iteration # 21     ecut=    50.00 Ry     beta= 0.20
     CG style diagonalization

---- Real-time Memory Report at c_bands before calling an iterative solver
            76 MiB given to the printing process from OS
            36 MiB allocation reported by mallinfo(arena+hblkhd)
        487220 MiB available memory on the node where the printing process lives
------------------
     ethr =  1.63E-06,  avg # of iterations =  4.3

     negative rho (up, down):  3.123E-02 3.259E-02

     total cpu time spent up to now is       29.5 secs

     total energy              =    -563.82175667 Ry
     estimated scf accuracy    <       0.00225925 Ry

     total magnetization       =     3.25 Bohr mag/cell
     absolute magnetization    =     3.55 Bohr mag/cell

     iteration # 22     ecut=    50.00 Ry     beta= 0.20
     CG style diagonalization

---- Real-time Memory Report at c_bands before calling an iterative solver
            76 MiB given to the printing process from OS
            36 MiB allocation reported by mallinfo(arena+hblkhd)
        487219 MiB available memory on the node where the printing process lives
------------------
     ethr =  1.63E-06,  avg # of iterations =  4.6

     negative rho (up, down):  3.121E-02 3.273E-02

     total cpu time spent up to now is       31.1 secs

     total energy              =    -563.83246073 Ry
     estimated scf accuracy    <       0.00231414 Ry

     total magnetization       =     2.34 Bohr mag/cell
     absolute magnetization    =     2.89 Bohr mag/cell

     iteration # 23     ecut=    50.00 Ry     beta= 0.20
     CG style diagonalization

---- Real-time Memory Report at c_bands before calling an iterative solver
            76 MiB given to the printing process from OS
            36 MiB allocation reported by mallinfo(arena+hblkhd)
        487212 MiB available memory on the node where the printing process lives
------------------
     ethr =  1.63E-06,  avg # of iterations =  3.2

     negative rho (up, down):  3.122E-02 3.262E-02

     total cpu time spent up to now is       32.1 secs

     total energy              =    -563.83376951 Ry
     estimated scf accuracy    <       0.00223024 Ry

     total magnetization       =     2.53 Bohr mag/cell
     absolute magnetization    =     3.00 Bohr mag/cell

     iteration # 24     ecut=    50.00 Ry     beta= 0.20
     CG style diagonalization

---- Real-time Memory Report at c_bands before calling an iterative solver
            76 MiB given to the printing process from OS
            36 MiB allocation reported by mallinfo(arena+hblkhd)
        487211 MiB available memory on the node where the printing process lives
------------------
     ethr =  1.63E-06,  avg # of iterations =  3.0

     negative rho (up, down):  3.122E-02 3.261E-02

     total cpu time spent up to now is       33.0 secs

     total energy              =    -563.83408258 Ry
     estimated scf accuracy    <       0.00228164 Ry

     total magnetization       =     2.40 Bohr mag/cell
     absolute magnetization    =     2.92 Bohr mag/cell

     iteration # 25     ecut=    50.00 Ry     beta= 0.20
     CG style diagonalization

---- Real-time Memory Report at c_bands before calling an iterative solver
            76 MiB given to the printing process from OS
            36 MiB allocation reported by mallinfo(arena+hblkhd)
        487211 MiB available memory on the node where the printing process lives
------------------
     ethr =  1.63E-06,  avg # of iterations =  3.0

     negative rho (up, down):  3.125E-02 3.260E-02

     total cpu time spent up to now is       33.9 secs

     total energy              =    -563.83474012 Ry
     estimated scf accuracy    <       0.00218831 Ry

     total magnetization       =     2.39 Bohr mag/cell
     absolute magnetization    =     2.91 Bohr mag/cell

     iteration # 26     ecut=    50.00 Ry     beta= 0.20
     CG style diagonalization

---- Real-time Memory Report at c_bands before calling an iterative solver
            76 MiB given to the printing process from OS
            36 MiB allocation reported by mallinfo(arena+hblkhd)
        487211 MiB available memory on the node where the printing process lives
------------------
     ethr =  1.63E-06,  avg # of iterations =  3.8

     negative rho (up, down):  3.127E-02 3.263E-02

     total cpu time spent up to now is       35.1 secs

     total energy              =    -563.84191506 Ry
     estimated scf accuracy    <       0.00622709 Ry

     total magnetization       =     1.78 Bohr mag/cell
     absolute magnetization    =     2.68 Bohr mag/cell

     iteration # 27     ecut=    50.00 Ry     beta= 0.20
     CG style diagonalization

---- Real-time Memory Report at c_bands before calling an iterative solver
            76 MiB given to the printing process from OS
            36 MiB allocation reported by mallinfo(arena+hblkhd)
        487211 MiB available memory on the node where the printing process lives
------------------
     ethr =  1.63E-06,  avg # of iterations =  3.3

     negative rho (up, down):  3.125E-02 3.259E-02

     total cpu time spent up to now is       36.2 secs

     total energy              =    -563.83697773 Ry
     estimated scf accuracy    <       0.01151946 Ry

     total magnetization       =     1.45 Bohr mag/cell
     absolute magnetization    =     3.04 Bohr mag/cell

     iteration # 28     ecut=    50.00 Ry     beta= 0.20
     CG style diagonalization

---- Real-time Memory Report at c_bands before calling an iterative solver
            76 MiB given to the printing process from OS
            36 MiB allocation reported by mallinfo(arena+hblkhd)
        487210 MiB available memory on the node where the printing process lives
------------------
     ethr =  1.63E-06,  avg # of iterations =  3.3

     negative rho (up, down):  3.125E-02 3.259E-02

     total cpu time spent up to now is       37.2 secs

     total energy              =    -563.83905089 Ry
     estimated scf accuracy    <       0.00572273 Ry

     total magnetization       =     1.84 Bohr mag/cell
     absolute magnetization    =     2.67 Bohr mag/cell

     iteration # 29     ecut=    50.00 Ry     beta= 0.20
     CG style diagonalization

---- Real-time Memory Report at c_bands before calling an iterative solver
            76 MiB given to the printing process from OS
            36 MiB allocation reported by mallinfo(arena+hblkhd)
        487209 MiB available memory on the node where the printing process lives
------------------
     ethr =  1.63E-06,  avg # of iterations =  3.0

     negative rho (up, down):  3.122E-02 3.264E-02

     total cpu time spent up to now is       38.1 secs

     total energy              =    -563.82889552 Ry
     estimated scf accuracy    <       0.00606119 Ry

     total magnetization       =     1.82 Bohr mag/cell
     absolute magnetization    =     2.67 Bohr mag/cell

     iteration # 30     ecut=    50.00 Ry     beta= 0.20
     CG style diagonalization

---- Real-time Memory Report at c_bands before calling an iterative solver
            76 MiB given to the printing process from OS
            36 MiB allocation reported by mallinfo(arena+hblkhd)
        487209 MiB available memory on the node where the printing process lives
------------------
     ethr =  1.63E-06,  avg # of iterations =  3.7

     negative rho (up, down):  3.122E-02 3.263E-02

     total cpu time spent up to now is       39.3 secs

     total energy              =    -563.83387781 Ry
     estimated scf accuracy    <       0.00226499 Ry

     total magnetization       =     2.42 Bohr mag/cell
     absolute magnetization    =     2.93 Bohr mag/cell

     iteration # 31     ecut=    50.00 Ry     beta= 0.20
     CG style diagonalization

---- Real-time Memory Report at c_bands before calling an iterative solver
            76 MiB given to the printing process from OS
            36 MiB allocation reported by mallinfo(arena+hblkhd)
        487209 MiB available memory on the node where the printing process lives
------------------
     ethr =  1.63E-06,  avg # of iterations =  3.0

     negative rho (up, down):  3.125E-02 3.260E-02

     total cpu time spent up to now is       40.2 secs

     total energy              =    -563.83429656 Ry
     estimated scf accuracy    <       0.00227419 Ry

     total magnetization       =     2.42 Bohr mag/cell
     absolute magnetization    =     2.92 Bohr mag/cell

     iteration # 32     ecut=    50.00 Ry     beta= 0.20
     CG style diagonalization

---- Real-time Memory Report at c_bands before calling an iterative solver
            76 MiB given to the printing process from OS
            36 MiB allocation reported by mallinfo(arena+hblkhd)
        487209 MiB available memory on the node where the printing process lives
------------------
     ethr =  1.63E-06,  avg # of iterations =  3.7

     negative rho (up, down):  3.126E-02 3.259E-02

     total cpu time spent up to now is       41.4 secs

     total energy              =    -563.84026241 Ry
     estimated scf accuracy    <       0.00619661 Ry

     total magnetization       =     1.76 Bohr mag/cell
     absolute magnetization    =     2.68 Bohr mag/cell

     iteration # 33     ecut=    50.00 Ry     beta= 0.20
     CG style diagonalization

---- Real-time Memory Report at c_bands before calling an iterative solver
            77 MiB given to the printing process from OS
            36 MiB allocation reported by mallinfo(arena+hblkhd)
        487208 MiB available memory on the node where the printing process lives
------------------
     ethr =  1.63E-06,  avg # of iterations =  3.0

     negative rho (up, down):  3.114E-02 3.422E-02

     total cpu time spent up to now is       42.3 secs

     total energy              =    -563.73351416 Ry
     estimated scf accuracy    <       0.00726226 Ry

     total magnetization       =     1.70 Bohr mag/cell
     absolute magnetization    =     2.71 Bohr mag/cell

     iteration # 34     ecut=    50.00 Ry     beta= 0.20
     CG style diagonalization

---- Real-time Memory Report at c_bands before calling an iterative solver
            77 MiB given to the printing process from OS
            36 MiB allocation reported by mallinfo(arena+hblkhd)
        487207 MiB available memory on the node where the printing process lives
------------------
     ethr =  1.63E-06,  avg # of iterations =  5.5

     negative rho (up, down):  3.117E-02 3.327E-02

     total cpu time spent up to now is       44.2 secs

     total energy              =    -563.81827110 Ry
     estimated scf accuracy    <       0.00683017 Ry

     total magnetization       =     3.84 Bohr mag/cell
     absolute magnetization    =     4.05 Bohr mag/cell

     iteration # 35     ecut=    50.00 Ry     beta= 0.20
     CG style diagonalization

---- Real-time Memory Report at c_bands before calling an iterative solver
            77 MiB given to the printing process from OS
            36 MiB allocation reported by mallinfo(arena+hblkhd)
        487207 MiB available memory on the node where the printing process lives
------------------
     ethr =  1.63E-06,  avg # of iterations =  4.3

     negative rho (up, down):  3.118E-02 3.322E-02

     total cpu time spent up to now is       45.7 secs

     total energy              =    -563.82930802 Ry
     estimated scf accuracy    <       0.00226328 Ry

     total magnetization       =     3.08 Bohr mag/cell
     absolute magnetization    =     3.41 Bohr mag/cell

     iteration # 36     ecut=    50.00 Ry     beta= 0.20
     CG style diagonalization

---- Real-time Memory Report at c_bands before calling an iterative solver
            77 MiB given to the printing process from OS
            36 MiB allocation reported by mallinfo(arena+hblkhd)
        487204 MiB available memory on the node where the printing process lives
------------------
     ethr =  1.63E-06,  avg # of iterations =  3.1

     negative rho (up, down):  3.116E-02 3.352E-02

     total cpu time spent up to now is       46.6 secs

     total energy              =    -563.82559955 Ry
     estimated scf accuracy    <       0.00195461 Ry

     total magnetization       =     3.02 Bohr mag/cell
     absolute magnetization    =     3.36 Bohr mag/cell

     iteration # 37     ecut=    50.00 Ry     beta= 0.20
     CG style diagonalization

---- Real-time Memory Report at c_bands before calling an iterative solver
            77 MiB given to the printing process from OS
            36 MiB allocation reported by mallinfo(arena+hblkhd)
        487204 MiB available memory on the node where the printing process lives
------------------
     ethr =  1.63E-06,  avg # of iterations =  3.2

     negative rho (up, down):  3.116E-02 3.341E-02

     total cpu time spent up to now is       47.7 secs

     total energy              =    -563.82764357 Ry
     estimated scf accuracy    <       0.00287548 Ry

     total magnetization       =     3.29 Bohr mag/cell
     absolute magnetization    =     3.58 Bohr mag/cell

     iteration # 38     ecut=    50.00 Ry     beta= 0.20
     CG style diagonalization

---- Real-time Memory Report at c_bands before calling an iterative solver
            77 MiB given to the printing process from OS
            36 MiB allocation reported by mallinfo(arena+hblkhd)
        487204 MiB available memory on the node where the printing process lives
------------------
     ethr =  1.63E-06,  avg # of iterations =  3.0

     negative rho (up, down):  3.117E-02 3.329E-02

     total cpu time spent up to now is       48.6 secs

     total energy              =    -563.82859504 Ry
     estimated scf accuracy    <       0.00247680 Ry

     total magnetization       =     3.20 Bohr mag/cell
     absolute magnetization    =     3.51 Bohr mag/cell

     iteration # 39     ecut=    50.00 Ry     beta= 0.20
     CG style diagonalization

---- Real-time Memory Report at c_bands before calling an iterative solver
            77 MiB given to the printing process from OS
            36 MiB allocation reported by mallinfo(arena+hblkhd)
        487204 MiB available memory on the node where the printing process lives
------------------
     ethr =  1.63E-06,  avg # of iterations =  3.1

     negative rho (up, down):  3.116E-02 3.341E-02

     total cpu time spent up to now is       49.5 secs

     total energy              =    -563.82761845 Ry
     estimated scf accuracy    <       0.00213065 Ry

     total magnetization       =     3.09 Bohr mag/cell
     absolute magnetization    =     3.41 Bohr mag/cell

     iteration # 40     ecut=    50.00 Ry     beta= 0.20
     CG style diagonalization

---- Real-time Memory Report at c_bands before calling an iterative solver
            77 MiB given to the printing process from OS
            36 MiB allocation reported by mallinfo(arena+hblkhd)
        487202 MiB available memory on the node where the printing process lives
------------------
     ethr =  1.63E-06,  avg # of iterations =  3.0

     negative rho (up, down):  3.116E-02 3.349E-02

     total cpu time spent up to now is       50.4 secs

     total energy              =    -563.82689665 Ry
     estimated scf accuracy    <       0.00249184 Ry

     total magnetization       =     3.20 Bohr mag/cell
     absolute magnetization    =     3.50 Bohr mag/cell

     iteration # 41     ecut=    50.00 Ry     beta= 0.20
     CG style diagonalization

---- Real-time Memory Report at c_bands before calling an iterative solver
            77 MiB given to the printing process from OS
            36 MiB allocation reported by mallinfo(arena+hblkhd)
        487202 MiB available memory on the node where the printing process lives
------------------
     ethr =  1.63E-06,  avg # of iterations =  3.0

     negative rho (up, down):  3.114E-02 3.388E-02

     total cpu time spent up to now is       51.3 secs

     total energy              =    -563.82097857 Ry
     estimated scf accuracy    <       0.00278158 Ry

     total magnetization       =     3.28 Bohr mag/cell
     absolute magnetization    =     3.56 Bohr mag/cell

     iteration # 42     ecut=    50.00 Ry     beta= 0.20
     CG style diagonalization

---- Real-time Memory Report at c_bands before calling an iterative solver
            77 MiB given to the printing process from OS
            36 MiB allocation reported by mallinfo(arena+hblkhd)
        487202 MiB available memory on the node where the printing process lives
------------------
     ethr =  1.63E-06,  avg # of iterations =  3.6

     negative rho (up, down):  3.115E-02 3.365E-02

     total cpu time spent up to now is       52.5 secs

     total energy              =    -563.82485193 Ry
     estimated scf accuracy    <       0.00463402 Ry

     total magnetization       =     3.60 Bohr mag/cell
     absolute magnetization    =     3.83 Bohr mag/cell

     iteration # 43     ecut=    50.00 Ry     beta= 0.20
     CG style diagonalization

---- Real-time Memory Report at c_bands before calling an iterative solver
            77 MiB given to the printing process from OS
            36 MiB allocation reported by mallinfo(arena+hblkhd)
        487201 MiB available memory on the node where the printing process lives
------------------
     ethr =  1.63E-06,  avg # of iterations =  3.2

     negative rho (up, down):  3.121E-02 3.271E-02

     total cpu time spent up to now is       53.5 secs

     total energy              =    -563.82040711 Ry
     estimated scf accuracy    <       0.00338175 Ry

     total magnetization       =     3.41 Bohr mag/cell
     absolute magnetization    =     3.68 Bohr mag/cell

     iteration # 44     ecut=    50.00 Ry     beta= 0.20
     CG style diagonalization

---- Real-time Memory Report at c_bands before calling an iterative solver
            77 MiB given to the printing process from OS
            36 MiB allocation reported by mallinfo(arena+hblkhd)
        487200 MiB available memory on the node where the printing process lives
------------------
     ethr =  1.63E-06,  avg # of iterations =  4.4

     negative rho (up, down):  3.120E-02 3.292E-02

     total cpu time spent up to now is       55.0 secs

     total energy              =    -563.83075019 Ry
     estimated scf accuracy    <       0.00186833 Ry

     total magnetization       =     2.49 Bohr mag/cell
     absolute magnetization    =     2.98 Bohr mag/cell

     iteration # 45     ecut=    50.00 Ry     beta= 0.20
     CG style diagonalization

---- Real-time Memory Report at c_bands before calling an iterative solver
            77 MiB given to the printing process from OS
            36 MiB allocation reported by mallinfo(arena+hblkhd)
        487198 MiB available memory on the node where the printing process lives
------------------
     ethr =  1.63E-06,  avg # of iterations =  3.2

     negative rho (up, down):  3.122E-02 3.260E-02

     total cpu time spent up to now is       56.0 secs

     total energy              =    -563.83243628 Ry
     estimated scf accuracy    <       0.00191078 Ry

     total magnetization       =     2.73 Bohr mag/cell
     absolute magnetization    =     3.14 Bohr mag/cell

     iteration # 46     ecut=    50.00 Ry     beta= 0.20
     CG style diagonalization

---- Real-time Memory Report at c_bands before calling an iterative solver
            77 MiB given to the printing process from OS
            36 MiB allocation reported by mallinfo(arena+hblkhd)
        487194 MiB available memory on the node where the printing process lives
------------------
     ethr =  1.63E-06,  avg # of iterations =  3.3

     negative rho (up, down):  3.126E-02 3.261E-02

     total cpu time spent up to now is       57.1 secs

     total energy              =    -563.83472091 Ry
     estimated scf accuracy    <       0.00241738 Ry

     total magnetization       =     2.37 Bohr mag/cell
     absolute magnetization    =     2.91 Bohr mag/cell

     iteration # 47     ecut=    50.00 Ry     beta= 0.20
     CG style diagonalization

---- Real-time Memory Report at c_bands before calling an iterative solver
            77 MiB given to the printing process from OS
            36 MiB allocation reported by mallinfo(arena+hblkhd)
        487194 MiB available memory on the node where the printing process lives
------------------
     ethr =  1.63E-06,  avg # of iterations =  4.0

     negative rho (up, down):  3.118E-02 3.310E-02

     total cpu time spent up to now is       58.4 secs

     total energy              =    -563.80788891 Ry
     estimated scf accuracy    <       0.00748263 Ry

     total magnetization       =     1.68 Bohr mag/cell
     absolute magnetization    =     2.74 Bohr mag/cell

     iteration # 48     ecut=    50.00 Ry     beta= 0.20
     CG style diagonalization

---- Real-time Memory Report at c_bands before calling an iterative solver
            77 MiB given to the printing process from OS
            36 MiB allocation reported by mallinfo(arena+hblkhd)
        487193 MiB available memory on the node where the printing process lives
------------------
     ethr =  1.63E-06,  avg # of iterations =  4.4

     negative rho (up, down):  3.118E-02 3.317E-02

     total cpu time spent up to now is       59.9 secs

     total energy              =    -563.82958238 Ry
     estimated scf accuracy    <       0.00184567 Ry

     total magnetization       =     2.91 Bohr mag/cell
     absolute magnetization    =     3.27 Bohr mag/cell

     iteration # 49     ecut=    50.00 Ry     beta= 0.20
     CG style diagonalization

---- Real-time Memory Report at c_bands before calling an iterative solver
            77 MiB given to the printing process from OS
            36 MiB allocation reported by mallinfo(arena+hblkhd)
        487193 MiB available memory on the node where the printing process lives
------------------
     ethr =  1.63E-06,  avg # of iterations =  3.1

     negative rho (up, down):  3.121E-02 3.277E-02

     total cpu time spent up to now is       60.8 secs

     total energy              =    -563.83029296 Ry
     estimated scf accuracy    <       0.00190309 Ry

     total magnetization       =     2.98 Bohr mag/cell
     absolute magnetization    =     3.32 Bohr mag/cell

     iteration # 50     ecut=    50.00 Ry     beta= 0.20
     CG style diagonalization

---- Real-time Memory Report at c_bands before calling an iterative solver
            77 MiB given to the printing process from OS
            36 MiB allocation reported by mallinfo(arena+hblkhd)
        487193 MiB available memory on the node where the printing process lives
------------------
     ethr =  1.63E-06,  avg # of iterations =  3.4

     negative rho (up, down):  3.119E-02 3.298E-02

     total cpu time spent up to now is       61.9 secs

     total energy              =    -563.83043698 Ry
     estimated scf accuracy    <       0.00189568 Ry

     total magnetization       =     2.57 Bohr mag/cell
     absolute magnetization    =     3.03 Bohr mag/cell

     iteration # 51     ecut=    50.00 Ry     beta= 0.20
     CG style diagonalization

---- Real-time Memory Report at c_bands before calling an iterative solver
            77 MiB given to the printing process from OS
            36 MiB allocation reported by mallinfo(arena+hblkhd)
        487190 MiB available memory on the node where the printing process lives
------------------
     ethr =  1.63E-06,  avg # of iterations =  3.2

     negative rho (up, down):  3.116E-02 3.343E-02

     total cpu time spent up to now is       62.9 secs

     total energy              =    -563.82429146 Ry
     estimated scf accuracy    <       0.00183626 Ry

     total magnetization       =     2.79 Bohr mag/cell
     absolute magnetization    =     3.18 Bohr mag/cell

     iteration # 52     ecut=    50.00 Ry     beta= 0.20
     CG style diagonalization

---- Real-time Memory Report at c_bands before calling an iterative solver
            77 MiB given to the printing process from OS
            36 MiB allocation reported by mallinfo(arena+hblkhd)
        487190 MiB available memory on the node where the printing process lives
------------------
     ethr =  1.63E-06,  avg # of iterations =  3.7

     negative rho (up, down):  3.114E-02 3.374E-02

     total cpu time spent up to now is       64.1 secs

     total energy              =    -563.82327790 Ry
     estimated scf accuracy    <       0.00249274 Ry

     total magnetization       =     3.22 Bohr mag/cell
     absolute magnetization    =     3.52 Bohr mag/cell

     iteration # 53     ecut=    50.00 Ry     beta= 0.20
     CG style diagonalization

---- Real-time Memory Report at c_bands before calling an iterative solver
            77 MiB given to the printing process from OS
            36 MiB allocation reported by mallinfo(arena+hblkhd)
        487190 MiB available memory on the node where the printing process lives
------------------
     ethr =  1.63E-06,  avg # of iterations =  3.5

     negative rho (up, down):  3.116E-02 3.336E-02

     total cpu time spent up to now is       65.2 secs

     total energy              =    -563.82628369 Ry
     estimated scf accuracy    <       0.00363284 Ry

     total magnetization       =     3.48 Bohr mag/cell
     absolute magnetization    =     3.74 Bohr mag/cell

     iteration # 54     ecut=    50.00 Ry     beta= 0.20
     CG style diagonalization

---- Real-time Memory Report at c_bands before calling an iterative solver
            77 MiB given to the printing process from OS
            36 MiB allocation reported by mallinfo(arena+hblkhd)
        487189 MiB available memory on the node where the printing process lives
------------------
     ethr =  1.63E-06,  avg # of iterations =  3.4

     negative rho (up, down):  3.115E-02 3.359E-02

     total cpu time spent up to now is       66.3 secs

     total energy              =    -563.82529118 Ry
     estimated scf accuracy    <       0.00219802 Ry

     total magnetization       =     3.16 Bohr mag/cell
     absolute magnetization    =     3.47 Bohr mag/cell

     iteration # 55     ecut=    50.00 Ry     beta= 0.20
     CG style diagonalization

---- Real-time Memory Report at c_bands before calling an iterative solver
            77 MiB given to the printing process from OS
            36 MiB allocation reported by mallinfo(arena+hblkhd)
        487189 MiB available memory on the node where the printing process lives
------------------
     ethr =  1.63E-06,  avg # of iterations =  3.2

     negative rho (up, down):  3.114E-02 3.375E-02

     total cpu time spent up to now is       67.3 secs

     total energy              =    -563.82429554 Ry
     estimated scf accuracy    <       0.00311823 Ry

     total magnetization       =     3.37 Bohr mag/cell
     absolute magnetization    =     3.63 Bohr mag/cell

     iteration # 56     ecut=    50.00 Ry     beta= 0.20
     CG style diagonalization

---- Real-time Memory Report at c_bands before calling an iterative solver
            77 MiB given to the printing process from OS
            36 MiB allocation reported by mallinfo(arena+hblkhd)
        487189 MiB available memory on the node where the printing process lives
------------------
     ethr =  1.63E-06,  avg # of iterations =  3.1

     negative rho (up, down):  3.114E-02 3.379E-02

     total cpu time spent up to now is       68.3 secs

     total energy              =    -563.82388630 Ry
     estimated scf accuracy    <       0.00376796 Ry

     total magnetization       =     3.49 Bohr mag/cell
     absolute magnetization    =     3.74 Bohr mag/cell

     iteration # 57     ecut=    50.00 Ry     beta= 0.20
     CG style diagonalization

---- Real-time Memory Report at c_bands before calling an iterative solver
            77 MiB given to the printing process from OS
            36 MiB allocation reported by mallinfo(arena+hblkhd)
        487187 MiB available memory on the node where the printing process lives
------------------
     ethr =  1.63E-06,  avg # of iterations =  3.0

     negative rho (up, down):  3.122E-02 3.266E-02

     total cpu time spent up to now is       69.2 secs

     total energy              =    -563.81585159 Ry
     estimated scf accuracy    <       0.00415652 Ry

     total magnetization       =     3.53 Bohr mag/cell
     absolute magnetization    =     3.77 Bohr mag/cell

     iteration # 58     ecut=    50.00 Ry     beta= 0.20
     CG style diagonalization

---- Real-time Memory Report at c_bands before calling an iterative solver
            77 MiB given to the printing process from OS
            36 MiB allocation reported by mallinfo(arena+hblkhd)
        487186 MiB available memory on the node where the printing process lives
------------------
     ethr =  1.63E-06,  avg # of iterations =  4.5

     negative rho (up, down):  3.119E-02 3.305E-02

     total cpu time spent up to now is       70.7 secs

     total energy              =    -563.82810648 Ry
     estimated scf accuracy    <       0.00192874 Ry

     total magnetization       =     2.44 Bohr mag/cell
     absolute magnetization    =     2.95 Bohr mag/cell

     iteration # 59     ecut=    50.00 Ry     beta= 0.20
     CG style diagonalization

---- Real-time Memory Report at c_bands before calling an iterative solver
            77 MiB given to the printing process from OS
            36 MiB allocation reported by mallinfo(arena+hblkhd)
        487185 MiB available memory on the node where the printing process lives
------------------
     ethr =  1.63E-06,  avg # of iterations =  3.5

     negative rho (up, down):  3.119E-02 3.302E-02

     total cpu time spent up to now is       71.8 secs

     total energy              =    -563.83084793 Ry
     estimated scf accuracy    <       0.00186476 Ry

     total magnetization       =     2.86 Bohr mag/cell
     absolute magnetization    =     3.23 Bohr mag/cell

     iteration # 60     ecut=    50.00 Ry     beta= 0.20
     CG style diagonalization

---- Real-time Memory Report at c_bands before calling an iterative solver
            77 MiB given to the printing process from OS
            36 MiB allocation reported by mallinfo(arena+hblkhd)
        487184 MiB available memory on the node where the printing process lives
------------------
     ethr =  1.63E-06,  avg # of iterations =  3.0

     negative rho (up, down):  3.126E-02 3.263E-02

     total cpu time spent up to now is       72.7 secs

     total energy              =    -563.82459986 Ry
     estimated scf accuracy    <       0.00183353 Ry

     total magnetization       =     2.83 Bohr mag/cell
     absolute magnetization    =     3.22 Bohr mag/cell

     iteration # 61     ecut=    50.00 Ry     beta= 0.20
     CG style diagonalization

---- Real-time Memory Report at c_bands before calling an iterative solver
            77 MiB given to the printing process from OS
            36 MiB allocation reported by mallinfo(arena+hblkhd)
        487184 MiB available memory on the node where the printing process lives
------------------
     ethr =  1.63E-06,  avg # of iterations =  4.4

     negative rho (up, down):  3.123E-02 3.258E-02

     total cpu time spent up to now is       74.2 secs

     total energy              =    -563.83299741 Ry
     estimated scf accuracy    <       0.00666357 Ry

     total magnetization       =     1.73 Bohr mag/cell
     absolute magnetization    =     2.71 Bohr mag/cell

     iteration # 62     ecut=    50.00 Ry     beta= 0.20
     CG style diagonalization

---- Real-time Memory Report at c_bands before calling an iterative solver
            77 MiB given to the printing process from OS
            36 MiB allocation reported by mallinfo(arena+hblkhd)
        487183 MiB available memory on the node where the printing process lives
------------------
     ethr =  1.63E-06,  avg # of iterations =  3.4

     negative rho (up, down):  3.125E-02 3.261E-02

     total cpu time spent up to now is       75.3 secs

     total energy              =    -563.83723163 Ry
     estimated scf accuracy    <       0.00318705 Ry

     total magnetization       =     2.19 Bohr mag/cell
     absolute magnetization    =     2.80 Bohr mag/cell

     iteration # 63     ecut=    50.00 Ry     beta= 0.20
     CG style diagonalization

---- Real-time Memory Report at c_bands before calling an iterative solver
            77 MiB given to the printing process from OS
            36 MiB allocation reported by mallinfo(arena+hblkhd)
        487183 MiB available memory on the node where the printing process lives
------------------
     ethr =  1.63E-06,  avg # of iterations =  3.2

     negative rho (up, down):  3.126E-02 3.262E-02

     total cpu time spent up to now is       76.3 secs

     total energy              =    -563.83941745 Ry
     estimated scf accuracy    <       0.00490518 Ry

     total magnetization       =     1.92 Bohr mag/cell
     absolute magnetization    =     2.69 Bohr mag/cell

     iteration # 64     ecut=    50.00 Ry     beta= 0.20
     CG style diagonalization

---- Real-time Memory Report at c_bands before calling an iterative solver
            77 MiB given to the printing process from OS
            36 MiB allocation reported by mallinfo(arena+hblkhd)
        487183 MiB available memory on the node where the printing process lives
------------------
     ethr =  1.63E-06,  avg # of iterations =  3.1

     negative rho (up, down):  3.122E-02 3.264E-02

     total cpu time spent up to now is       77.2 secs

     total energy              =    -563.82826816 Ry
     estimated scf accuracy    <       0.00660145 Ry

     total magnetization       =     1.76 Bohr mag/cell
     absolute magnetization    =     2.69 Bohr mag/cell

     iteration # 65     ecut=    50.00 Ry     beta= 0.20
     CG style diagonalization

---- Real-time Memory Report at c_bands before calling an iterative solver
            77 MiB given to the printing process from OS
            36 MiB allocation reported by mallinfo(arena+hblkhd)
        487183 MiB available memory on the node where the printing process lives
------------------
     ethr =  1.63E-06,  avg # of iterations =  3.6

[...]
------------------
     ethr =  1.63E-06,  avg # of iterations =  4.0

     negative rho (up, down):  3.123E-02 3.256E-02

     total cpu time spent up to now is       95.3 secs

     total energy              =    -563.83477594 Ry
     estimated scf accuracy    <       0.00238698 Ry

     total magnetization       =     2.38 Bohr mag/cell
     absolute magnetization    =     2.90 Bohr mag/cell

     iteration # 80     ecut=    50.00 Ry     beta= 0.20
     CG style diagonalization

---- Real-time Memory Report at c_bands before calling an iterative solver
            77 MiB given to the printing process from OS
            36 MiB allocation reported by mallinfo(arena+hblkhd)
        487175 MiB available memory on the node where the printing process lives
------------------
     ethr =  1.63E-06,  avg # of iterations =  3.0

     negative rho (up, down):  3.123E-02 3.257E-02

     total cpu time spent up to now is       96.3 secs

     total energy              =    -563.83517446 Ry
     estimated scf accuracy    <       0.00258537 Ry

     total magnetization       =     2.30 Bohr mag/cell
     absolute magnetization    =     2.85 Bohr mag/cell

     iteration # 81     ecut=    50.00 Ry     beta= 0.20
     CG style diagonalization

---- Real-time Memory Report at c_bands before calling an iterative solver
            77 MiB given to the printing process from OS
            36 MiB allocation reported by mallinfo(arena+hblkhd)
        487175 MiB available memory on the node where the printing process lives
------------------
     ethr =  1.63E-06,  avg # of iterations =  3.0

     negative rho (up, down):  3.121E-02 3.281E-02

     total cpu time spent up to now is       97.2 secs

     total energy              =    -563.83059611 Ry
     estimated scf accuracy    <       0.00275005 Ry

     total magnetization       =     2.26 Bohr mag/cell
     absolute magnetization    =     2.83 Bohr mag/cell

     iteration # 82     ecut=    50.00 Ry     beta= 0.20
     CG style diagonalization

---- Real-time Memory Report at c_bands before calling an iterative solver
            77 MiB given to the printing process from OS
            36 MiB allocation reported by mallinfo(arena+hblkhd)
        487175 MiB available memory on the node where the printing process lives
------------------
     ethr =  1.63E-06,  avg # of iterations =  3.3

     negative rho (up, down):  3.118E-02 3.317E-02

     total cpu time spent up to now is       98.2 secs

     total energy              =    -563.82733032 Ry
     estimated scf accuracy    <       0.00182877 Ry

     total magnetization       =     2.62 Bohr mag/cell
     absolute magnetization    =     3.06 Bohr mag/cell

     iteration # 83     ecut=    50.00 Ry     beta= 0.20
     CG style diagonalization

---- Real-time Memory Report at c_bands before calling an iterative solver
            77 MiB given to the printing process from OS
            36 MiB allocation reported by mallinfo(arena+hblkhd)
        487175 MiB available memory on the node where the printing process lives
------------------
     ethr =  1.63E-06,  avg # of iterations =  3.6

     negative rho (up, down):  3.123E-02 3.257E-02

     total cpu time spent up to now is       99.4 secs

     total energy              =    -563.82741232 Ry
     estimated scf accuracy    <       0.00178395 Ry

     total magnetization       =     2.99 Bohr mag/cell
     absolute magnetization    =     3.33 Bohr mag/cell

     iteration # 84     ecut=    50.00 Ry     beta= 0.20
     CG style diagonalization

---- Real-time Memory Report at c_bands before calling an iterative solver
            77 MiB given to the printing process from OS
            36 MiB allocation reported by mallinfo(arena+hblkhd)
        487174 MiB available memory on the node where the printing process lives
------------------
     ethr =  1.63E-06,  avg # of iterations =  3.9

     negative rho (up, down):  3.121E-02 3.274E-02

     total cpu time spent up to now is      100.7 secs

     total energy              =    -563.83166573 Ry
     estimated scf accuracy    <       0.00258186 Ry

     total magnetization       =     2.23 Bohr mag/cell
     absolute magnetization    =     2.82 Bohr mag/cell

     iteration # 85     ecut=    50.00 Ry     beta= 0.20
     CG style diagonalization

---- Real-time Memory Report at c_bands before calling an iterative solver
            77 MiB given to the printing process from OS
            36 MiB allocation reported by mallinfo(arena+hblkhd)
        487174 MiB available memory on the node where the printing process lives
------------------
     ethr =  1.63E-06,  avg # of iterations =  3.3

     negative rho (up, down):  3.121E-02 3.276E-02

     total cpu time spent up to now is      101.7 secs

     total energy              =    -563.83281461 Ry
     estimated scf accuracy    <       0.00191366 Ry

     total magnetization       =     2.54 Bohr mag/cell
     absolute magnetization    =     3.01 Bohr mag/cell

     iteration # 86     ecut=    50.00 Ry     beta= 0.20
     CG style diagonalization

---- Real-time Memory Report at c_bands before calling an iterative solver
            77 MiB given to the printing process from OS
            36 MiB allocation reported by mallinfo(arena+hblkhd)
        487174 MiB available memory on the node where the printing process lives
------------------
     ethr =  1.63E-06,  avg # of iterations =  3.0

     negative rho (up, down):  3.122E-02 3.267E-02

     total cpu time spent up to now is      102.6 secs

     total energy              =    -563.83344734 Ry
     estimated scf accuracy    <       0.00181222 Ry

     total magnetization       =     2.56 Bohr mag/cell
     absolute magnetization    =     3.02 Bohr mag/cell

     iteration # 87     ecut=    50.00 Ry     beta= 0.20
     CG style diagonalization

---- Real-time Memory Report at c_bands before calling an iterative solver
            77 MiB given to the printing process from OS
            36 MiB allocation reported by mallinfo(arena+hblkhd)
        487174 MiB available memory on the node where the printing process lives
------------------
     ethr =  1.63E-06,  avg # of iterations =  3.0

     negative rho (up, down):  3.116E-02 3.338E-02

     total cpu time spent up to now is      103.5 secs

     total energy              =    -563.81937974 Ry
     estimated scf accuracy    <       0.00197172 Ry

     total magnetization       =     2.46 Bohr mag/cell
     absolute magnetization    =     2.95 Bohr mag/cell

     iteration # 88     ecut=    50.00 Ry     beta= 0.20
     CG style diagonalization

---- Real-time Memory Report at c_bands before calling an iterative solver
            77 MiB given to the printing process from OS
            36 MiB allocation reported by mallinfo(arena+hblkhd)
        487173 MiB available memory on the node where the printing process lives
------------------
     ethr =  1.63E-06,  avg # of iterations =  4.0

     negative rho (up, down):  3.116E-02 3.346E-02

     total cpu time spent up to now is      104.9 secs

     total energy              =    -563.82713019 Ry
     estimated scf accuracy    <       0.00210495 Ry

     total magnetization       =     3.18 Bohr mag/cell
     absolute magnetization    =     3.48 Bohr mag/cell

     iteration # 89     ecut=    50.00 Ry     beta= 0.20
     CG style diagonalization

---- Real-time Memory Report at c_bands before calling an iterative solver
            77 MiB given to the printing process from OS
            36 MiB allocation reported by mallinfo(arena+hblkhd)
        487172 MiB available memory on the node where the printing process lives
------------------
     ethr =  1.63E-06,  avg # of iterations =  3.0

     negative rho (up, down):  3.115E-02 3.465E-02

     total cpu time spent up to now is      105.8 secs

     total energy              =    -563.79348385 Ry
     estimated scf accuracy    <       0.00237345 Ry

     total magnetization       =     3.25 Bohr mag/cell
     absolute magnetization    =     3.54 Bohr mag/cell

     iteration # 90     ecut=    50.00 Ry     beta= 0.20
     CG style diagonalization

---- Real-time Memory Report at c_bands before calling an iterative solver
            77 MiB given to the printing process from OS
            36 MiB allocation reported by mallinfo(arena+hblkhd)
        487168 MiB available memory on the node where the printing process lives
------------------
     ethr =  1.63E-06,  avg # of iterations =  4.8

     negative rho (up, down):  3.116E-02 3.342E-02

     total cpu time spent up to now is      107.4 secs

     total energy              =    -563.81249465 Ry
     estimated scf accuracy    <       0.00963474 Ry

     total magnetization       =     4.11 Bohr mag/cell
     absolute magnetization    =     4.30 Bohr mag/cell

     iteration # 91     ecut=    50.00 Ry     beta= 0.20
     CG style diagonalization

---- Real-time Memory Report at c_bands before calling an iterative solver
            77 MiB given to the printing process from OS
            36 MiB allocation reported by mallinfo(arena+hblkhd)
        487168 MiB available memory on the node where the printing process lives
------------------
     ethr =  1.63E-06,  avg # of iterations =  4.7

     negative rho (up, down):  3.123E-02 3.258E-02

     total cpu time spent up to now is      109.0 secs

     total energy              =    -563.81923661 Ry
     estimated scf accuracy    <       0.00185001 Ry

     total magnetization       =     3.22 Bohr mag/cell
     absolute magnetization    =     3.51 Bohr mag/cell

     iteration # 92     ecut=    50.00 Ry     beta= 0.20
     CG style diagonalization

---- Real-time Memory Report at c_bands before calling an iterative solver
            77 MiB given to the printing process from OS
            36 MiB allocation reported by mallinfo(arena+hblkhd)
        487168 MiB available memory on the node where the printing process lives
------------------
     ethr =  1.63E-06,  avg # of iterations =  4.7

     negative rho (up, down):  3.117E-02 3.329E-02

     total cpu time spent up to now is      110.7 secs

     total energy              =    -563.81406039 Ry
     estimated scf accuracy    <       0.00273026 Ry

     total magnetization       =     2.11 Bohr mag/cell
     absolute magnetization    =     2.75 Bohr mag/cell

     iteration # 93     ecut=    50.00 Ry     beta= 0.20
     CG style diagonalization

---- Real-time Memory Report at c_bands before calling an iterative solver
            77 MiB given to the printing process from OS
            36 MiB allocation reported by mallinfo(arena+hblkhd)
        487168 MiB available memory on the node where the printing process lives
------------------
     ethr =  1.63E-06,  avg # of iterations =  4.2

     negative rho (up, down):  3.120E-02 3.290E-02

     total cpu time spent up to now is      112.1 secs

     total energy              =    -563.82947282 Ry
     estimated scf accuracy    <       0.00186981 Ry

     total magnetization       =     3.09 Bohr mag/cell
     absolute magnetization    =     3.41 Bohr mag/cell

     iteration # 94     ecut=    50.00 Ry     beta= 0.20
     CG style diagonalization

---- Real-time Memory Report at c_bands before calling an iterative solver
            77 MiB given to the printing process from OS
            36 MiB allocation reported by mallinfo(arena+hblkhd)
        487168 MiB available memory on the node where the printing process lives
------------------
     ethr =  1.63E-06,  avg # of iterations =  3.5

     negative rho (up, down):  3.120E-02 3.285E-02

     total cpu time spent up to now is      113.2 secs

     total energy              =    -563.83209290 Ry
     estimated scf accuracy    <       0.00153100 Ry

     total magnetization       =     2.71 Bohr mag/cell
     absolute magnetization    =     3.13 Bohr mag/cell

     iteration # 95     ecut=    50.00 Ry     beta= 0.20
     CG style diagonalization

---- Real-time Memory Report at c_bands before calling an iterative solver
            77 MiB given to the printing process from OS
            36 MiB allocation reported by mallinfo(arena+hblkhd)
        487167 MiB available memory on the node where the printing process lives
------------------
     ethr =  1.63E-06,  avg # of iterations =  3.0

     negative rho (up, down):  3.121E-02 3.278E-02

     total cpu time spent up to now is      114.1 secs

     total energy              =    -563.83260887 Ry
     estimated scf accuracy    <       0.00166250 Ry

     total magnetization       =     2.65 Bohr mag/cell
     absolute magnetization    =     3.09 Bohr mag/cell

     iteration # 96     ecut=    50.00 Ry     beta= 0.20
     CG style diagonalization

---- Real-time Memory Report at c_bands before calling an iterative solver
            77 MiB given to the printing process from OS
            36 MiB allocation reported by mallinfo(arena+hblkhd)
        487167 MiB available memory on the node where the printing process lives
------------------
     ethr =  1.63E-06,  avg # of iterations =  3.0

     negative rho (up, down):  3.116E-02 3.340E-02

     total cpu time spent up to now is      115.0 secs

     total energy              =    -563.82172306 Ry
     estimated scf accuracy    <       0.00169256 Ry

     total magnetization       =     2.58 Bohr mag/cell
     absolute magnetization    =     3.04 Bohr mag/cell

     iteration # 97     ecut=    50.00 Ry     beta= 0.20
     CG style diagonalization

---- Real-time Memory Report at c_bands before calling an iterative solver
            77 MiB given to the printing process from OS
            36 MiB allocation reported by mallinfo(arena+hblkhd)
        487167 MiB available memory on the node where the printing process lives
------------------
     ethr =  1.63E-06,  avg # of iterations =  3.7

     negative rho (up, down):  3.119E-02 3.301E-02

     total cpu time spent up to now is      116.2 secs

     total energy              =    -563.82869391 Ry
     estimated scf accuracy    <       0.00213031 Ry

     total magnetization       =     3.19 Bohr mag/cell
     absolute magnetization    =     3.49 Bohr mag/cell

     iteration # 98     ecut=    50.00 Ry     beta= 0.20
     CG style diagonalization

---- Real-time Memory Report at c_bands before calling an iterative solver
            77 MiB given to the printing process from OS
            36 MiB allocation reported by mallinfo(arena+hblkhd)
        487167 MiB available memory on the node where the printing process lives
------------------
     ethr =  1.63E-06,  avg # of iterations =  3.5

     negative rho (up, down):  3.118E-02 3.310E-02

     total cpu time spent up to now is      117.4 secs

     total energy              =    -563.83018039 Ry
     estimated scf accuracy    <       0.00159839 Ry

     total magnetization       =     2.81 Bohr mag/cell
     absolute magnetization    =     3.21 Bohr mag/cell

     iteration # 99     ecut=    50.00 Ry     beta= 0.20
     CG style diagonalization

---- Real-time Memory Report at c_bands before calling an iterative solver
            77 MiB given to the printing process from OS
            36 MiB allocation reported by mallinfo(arena+hblkhd)
        487167 MiB available memory on the node where the printing process lives
------------------
     ethr =  1.63E-06,  avg # of iterations =  3.0

     negative rho (up, down):  3.125E-02 3.261E-02

     total cpu time spent up to now is      118.3 secs

     total energy              =    -563.82442265 Ry
     estimated scf accuracy    <       0.00172408 Ry

     total magnetization       =     2.90 Bohr mag/cell
     absolute magnetization    =     3.27 Bohr mag/cell

     iteration #100     ecut=    50.00 Ry     beta= 0.20
     CG style diagonalization

---- Real-time Memory Report at c_bands before calling an iterative solver
            77 MiB given to the printing process from OS
            36 MiB allocation reported by mallinfo(arena+hblkhd)
        487165 MiB available memory on the node where the printing process lives
------------------
     ethr =  1.63E-06,  avg # of iterations =  4.4

     negative rho (up, down):  3.132E-02 3.269E-02

     total cpu time spent up to now is      119.8 secs

     total energy              =    -563.83872525 Ry
     estimated scf accuracy    <       0.00524524 Ry

     total magnetization       =     1.85 Bohr mag/cell
     absolute magnetization    =     2.68 Bohr mag/cell

     End of self-consistent calculation

     convergence NOT achieved after 100 iterations: stopping

     Writing config to output data dir ./out/aiida.save/ :
     XML data file, charge density

     init_run     :      1.24s CPU      1.29s WALL (       1 calls)
     electrons    :    108.80s CPU    117.95s WALL (       1 calls)

     Called by init_run:
     wfcinit      :      0.24s CPU      0.26s WALL (       1 calls)
     wfcinit:atom :      0.00s CPU      0.00s WALL (      21 calls)
     wfcinit:wfcr :      0.22s CPU      0.23s WALL (      21 calls)
     potinit      :      0.34s CPU      0.36s WALL (       1 calls)
     hinit0       :      0.59s CPU      0.61s WALL (       1 calls)

     Called by electrons:
     c_bands      :     94.12s CPU    102.51s WALL (     100 calls)
     sum_band     :      9.46s CPU      9.94s WALL (     100 calls)
     v_of_rho     :      2.87s CPU      2.95s WALL (     101 calls)
     v_h          :      0.08s CPU      0.08s WALL (     101 calls)
     v_xc         :      2.79s CPU      2.87s WALL (     101 calls)
     newd         :      1.46s CPU      1.47s WALL (     101 calls)
     mix_rho      :      0.43s CPU      0.45s WALL (     100 calls)

     Called by c_bands:
     init_us_2    :      0.64s CPU      0.66s WALL (    4221 calls)
     init_us_2:cp :      0.62s CPU      0.64s WALL (    4221 calls)
     ccgdiagg     :     60.91s CPU     67.48s WALL (    2101 calls)
     wfcrot       :     15.07s CPU     16.11s WALL (    2101 calls)

     Called by sum_band:
     sum_band:wei :      0.14s CPU      0.14s WALL (     100 calls)
     sum_band:loo :      6.88s CPU      7.28s WALL (     100 calls)
     sum_band:buf :      0.07s CPU      0.07s WALL (    2100 calls)
     sum_band:ini :      0.30s CPU      0.32s WALL (    2100 calls)
     sum_band:cal :      0.66s CPU      0.70s WALL (    2100 calls)
     sum_band:bec :      0.04s CPU      0.04s WALL (    2100 calls)
     addusdens    :      1.81s CPU      1.83s WALL (     100 calls)
                                        0.00s GPU  (     100 calls)
     addusd:skk   :      0.00s CPU      0.00s WALL (     400 calls)
                                        0.00s GPU  (     400 calls)

     Called by *cgdiagg:
     h_psi        :     53.37s CPU     58.09s WALL (  180640 calls)
     s_psi        :      6.07s CPU      6.77s WALL (  359179 calls)

     Called by h_psi:
     h_psi:calbec :      4.98s CPU      5.52s WALL (  180640 calls)
     vloc_psi     :     38.68s CPU     41.77s WALL (  180640 calls)
     add_vuspsi   :      8.64s CPU      9.24s WALL (  180640 calls)
     hs_1psi      :     44.80s CPU     49.61s WALL (  178539 calls)
     s_1psi       :      7.19s CPU      8.24s WALL (  178539 calls)

     General routines
     calbec       :      8.93s CPU      9.73s WALL (  361279 calls)
     fft          :      1.45s CPU      1.56s WALL (    2523 calls)
     ffts         :      0.41s CPU      0.43s WALL (     402 calls)
     fftw         :     36.48s CPU     39.04s WALL (  577942 calls)
     interpolate  :      0.44s CPU      0.45s WALL (     202 calls)
     davcio       :      0.00s CPU      0.15s WALL (      47 calls)

     Parallel routines

     PWSCF        :   1m50.58s CPU   2m 0.14s WALL


   This run was terminated on:   4:49:16  30Nov2023            

=------------------------------------------------------------------------------=
   JOB DONE.
=------------------------------------------------------------------------------=
