
     Program PWSCF v.7.2 starts on 23Oct2023 at 17:53:17 

     This program is part of the open-source Quantum ESPRESSO suite
     for quantum simulation of materials; please cite
         "P. Giannozzi et al., J. Phys.:Condens. Matter 21 395502 (2009);
         "P. Giannozzi et al., J. Phys.:Condens. Matter 29 465901 (2017);
         "P. Giannozzi et al., J. Chem. Phys. 152 154105 (2020);
          URL http://www.quantum-espresso.org", 
     in publications or presentations arising from this work. More details at
     http://www.quantum-espresso.org/quote

     Parallel version (MPI & OpenMP), running on      12 processor cores
     Number of MPI processes:                 1
     Threads/MPI process:                    12

     MPI processes distributed on     1 nodes
     60513 MiB available memory on the printing compute node when the environment starts
 
     Reading input from aiida.in

     Current dimensions of program PWSCF are:
     Max number of different atomic species (ntypx) = 10
     Max number of k-points (npk) =  40000
     Max angular momentum in pseudopotentials (lmaxx) =  4
     Message from routine setup:
     using ibrav=0 with symmetry is DISCOURAGED, use correct ibrav instead
 
     Subspace diagonalization in iterative solution of the eigenvalue problem:
     a serial algorithm will be used

 
     G-vector sticks info
     --------------------
     sticks:   dense  smooth     PW     G-vecs:    dense   smooth      PW
     Sum        3943    1303    379               163281    31283    5029
 
     Using Slab Decomposition
 


     bravais-lattice index     =            0
     lattice parameter (alat)  =       8.5653  a.u.
     unit-cell volume          =     444.3352 (a.u.)^3
     number of atoms/cell      =            4
     number of atomic types    =            3
     number of electrons       =        41.00
     number of Kohn-Sham states=           25
     kinetic-energy cutoff     =      65.0000  Ry
     charge density cutoff     =     780.0000  Ry
     scf convergence threshold =      8.0E-10
     mixing beta               =       0.2000
     number of iterations used =            8  plain     mixing
     Exchange-correlation= PBESOL
                           (   1   4  10   8   0   0   0)

     GPU acceleration is ACTIVE.


     GPU used by master process:

        Device Number: 0
        Device name: Tesla P100-PCIE-16GB
        Compute capability : 60
        Ratio of single to double precision performance  : 2
        Memory Clock Rate (KHz): 715000
        Memory Bus Width (bits): 4096
        Peak Memory Bandwidth (GB/s): 732.16

     celldm(1)=   8.565287  celldm(2)=   0.000000  celldm(3)=   0.000000
     celldm(4)=   0.000000  celldm(5)=   0.000000  celldm(6)=   0.000000

     crystal axes: (cart. coord. in units of alat)
               a(1) = (   0.000000   0.707107   0.707107 )  
               a(2) = (   0.707107   0.000000   0.707107 )  
               a(3) = (   0.707107   0.707107   0.000000 )  

     reciprocal axes: (cart. coord. in units 2 pi/alat)
               b(1) = ( -0.707107  0.707107  0.707107 )  
               b(2) = (  0.707107 -0.707107  0.707107 )  
               b(3) = (  0.707107  0.707107 -0.707107 )  


     PseudoPot. # 1 for Mn read from file:
     ./pseudo/mn_pbesol_v1.5.uspp.F.UPF
     MD5 check sum: 0716d5f563e6e95a34f9080f4c78c109
     Pseudo is Ultrasoft + core correction, Zval = 15.0
     Generated by new atomic code, or converted to UPF format
     Using radial grid of  859 points,  6 beta functions with: 
                l(1) =   0
                l(2) =   0
                l(3) =   1
                l(4) =   1
                l(5) =   2
                l(6) =   2
     Q(r) pseudized with  8 coefficients,  rinner =    0.950   0.950   0.950
                                                       0.950   0.950

     PseudoPot. # 2 for Sc read from file:
     ./pseudo/Sc_ONCV_PBEsol-1.0.upf
     MD5 check sum: 1a9da10301537f29e8fd13e102309a15
     Pseudo is Norm-conserving, Zval = 11.0
     Generated using ONCVPSP code by D. R. Hamann
     Using radial grid of 1642 points,  6 beta functions with: 
                l(1) =   0
                l(2) =   0
                l(3) =   1
                l(4) =   1
                l(5) =   2
                l(6) =   2

     PseudoPot. # 3 for Si read from file:
     ./pseudo/Si.pbesol-n-rrkjus_psl.1.0.0.UPF
     MD5 check sum: c4212819de858c94c3a1644338846ac9
     Pseudo is Ultrasoft + core correction, Zval =  4.0
     Generated using "atomic" code by A. Dal Corso  v.6.0 svn rev. 13079
     Using radial grid of 1141 points,  6 beta functions with: 
                l(1) =   0
                l(2) =   0
                l(3) =   1
                l(4) =   1
                l(5) =   2
                l(6) =   2
     Q(r) pseudized with 0 coefficients 


     atomic species   valence    mass     pseudopotential
        Mn            15.00    54.93805     Mn( 1.00)
        Sc            11.00    44.95591     Sc( 1.00)
        Si             4.00    28.08550     Si( 1.00)

     Starting magnetic structure 
     atomic species   magnetization
        Mn           0.333
        Sc           0.455
        Si           0.100

     48 Sym. Ops., with inversion, found


                                    s                        frac. trans.

      isym =  1     identity                                     

 cryst.   s( 1) = (     1          0          0      )
                  (     0          1          0      )
                  (     0          0          1      )

 cart.    s( 1) = (  1.0000000 -0.0000000  0.0000000 )
                  ( -0.0000000  1.0000000  0.0000000 )
                  ( -0.0000000  0.0000000  1.0000000 )


      isym =  2     180 deg rotation - cart. axis [0,0,1]        

 cryst.   s( 2) = (     0          1         -1      )
                  (     1          0         -1      )
                  (     0          0         -1      )

 cart.    s( 2) = ( -1.0000000  0.0000000  0.0000000 )
                  (  0.0000000 -1.0000000  0.0000000 )
                  (  0.0000000 -0.0000000  1.0000000 )


      isym =  3     180 deg rotation - cart. axis [0,1,0]        

 cryst.   s( 3) = (     0         -1          1      )
                  (     0         -1          0      )
                  (     1         -1          0      )

 cart.    s( 3) = ( -1.0000000 -0.0000000 -0.0000000 )
                  (  0.0000000  1.0000000 -0.0000000 )
                  (  0.0000000  0.0000000 -1.0000000 )


      isym =  4     180 deg rotation - cart. axis [1,0,0]        

 cryst.   s( 4) = (    -1          0          0      )
                  (    -1          0          1      )
                  (    -1          1          0      )

 cart.    s( 4) = (  1.0000000  0.0000000 -0.0000000 )
                  ( -0.0000000 -1.0000000 -0.0000000 )
                  ( -0.0000000 -0.0000000 -1.0000000 )


      isym =  5     180 deg rotation - cart. axis [1,1,0]        

 cryst.   s( 5) = (    -1          0          1      )
                  (     0         -1          1      )
                  (     0          0          1      )

 cart.    s( 5) = ( -0.0000000  1.0000000 -0.0000000 )
                  (  1.0000000 -0.0000000 -0.0000000 )
                  (  0.0000000 -0.0000000 -1.0000000 )


      isym =  6     180 deg rotation - cart. axis [1,-1,0]       

 cryst.   s( 6) = (     0         -1          0      )
                  (    -1          0          0      )
                  (     0          0         -1      )

 cart.    s( 6) = (  0.0000000 -1.0000000 -0.0000000 )
                  ( -1.0000000  0.0000000 -0.0000000 )
                  ( -0.0000000  0.0000000 -1.0000000 )


      isym =  7      90 deg rotation - cart. axis [0,0,-1]       

 cryst.   s( 7) = (     0          1          0      )
                  (     0          1         -1      )
                  (    -1          1          0      )

 cart.    s( 7) = (  0.0000000  1.0000000  0.0000000 )
                  ( -1.0000000 -0.0000000  0.0000000 )
                  ( -0.0000000 -0.0000000  1.0000000 )


      isym =  8      90 deg rotation - cart. axis [0,0,1]        

 cryst.   s( 8) = (     1          0         -1      )
                  (     1          0          0      )
                  (     1         -1          0      )

 cart.    s( 8) = ( -0.0000000 -1.0000000  0.0000000 )
                  (  1.0000000  0.0000000  0.0000000 )
                  (  0.0000000  0.0000000  1.0000000 )


      isym =  9     180 deg rotation - cart. axis [1,0,1]        

 cryst.   s( 9) = (    -1          1          0      )
                  (     0          1          0      )
                  (     0          1         -1      )

 cart.    s( 9) = (  0.0000000  0.0000000  1.0000000 )
                  (  0.0000000 -1.0000000 -0.0000000 )
                  (  1.0000000 -0.0000000 -0.0000000 )


      isym = 10     180 deg rotation - cart. axis [-1,0,1]       

 cryst.   s(10) = (     0          0         -1      )
                  (     0         -1          0      )
                  (    -1          0          0      )

 cart.    s(10) = ( -0.0000000  0.0000000 -1.0000000 )
                  ( -0.0000000 -1.0000000  0.0000000 )
                  ( -1.0000000 -0.0000000  0.0000000 )


      isym = 11      90 deg rotation - cart. axis [0,1,0]        

 cryst.   s(11) = (     0          0          1      )
                  (    -1          0          1      )
                  (     0         -1          1      )

 cart.    s(11) = ( -0.0000000 -0.0000000  1.0000000 )
                  ( -0.0000000  1.0000000 -0.0000000 )
                  ( -1.0000000  0.0000000 -0.0000000 )


      isym = 12      90 deg rotation - cart. axis [0,-1,0]       

 cryst.   s(12) = (     1         -1          0      )
                  (     1          0         -1      )
                  (     1          0          0      )

 cart.    s(12) = (  0.0000000 -0.0000000 -1.0000000 )
                  (  0.0000000  1.0000000  0.0000000 )
                  (  1.0000000  0.0000000  0.0000000 )


      isym = 13     180 deg rotation - cart. axis [0,1,1]        

 cryst.   s(13) = (     1          0          0      )
                  (     1         -1          0      )
                  (     1          0         -1      )

 cart.    s(13) = ( -1.0000000  0.0000000 -0.0000000 )
                  (  0.0000000  0.0000000  1.0000000 )
                  (  0.0000000  1.0000000  0.0000000 )


      isym = 14     180 deg rotation - cart. axis [0,1,-1]       

 cryst.   s(14) = (    -1          0          0      )
                  (     0          0         -1      )
                  (     0         -1          0      )

 cart.    s(14) = ( -1.0000000 -0.0000000  0.0000000 )
                  (  0.0000000 -0.0000000 -1.0000000 )
                  (  0.0000000 -1.0000000 -0.0000000 )


      isym = 15      90 deg rotation - cart. axis [-1,0,0]       

 cryst.   s(15) = (     0         -1          1      )
                  (     0          0          1      )
                  (    -1          0          1      )

 cart.    s(15) = (  1.0000000 -0.0000000 -0.0000000 )
                  ( -0.0000000 -0.0000000  1.0000000 )
                  ( -0.0000000 -1.0000000  0.0000000 )


      isym = 16      90 deg rotation - cart. axis [1,0,0]        

 cryst.   s(16) = (     0          1         -1      )
                  (    -1          1          0      )
                  (     0          1          0      )

 cart.    s(16) = (  1.0000000  0.0000000  0.0000000 )
                  ( -0.0000000  0.0000000 -1.0000000 )
                  ( -0.0000000  1.0000000 -0.0000000 )


      isym = 17     120 deg rotation - cart. axis [-1,-1,-1]     

 cryst.   s(17) = (     0          0          1      )
                  (     1          0          0      )
                  (     0          1          0      )

 cart.    s(17) = (  0.0000000  1.0000000 -0.0000000 )
                  (  0.0000000 -0.0000000  1.0000000 )
                  (  1.0000000 -0.0000000  0.0000000 )


      isym = 18     120 deg rotation - cart. axis [-1,1,1]       

 cryst.   s(18) = (     1         -1          0      )
                  (     0         -1          1      )
                  (     0         -1          0      )

 cart.    s(18) = ( -0.0000000 -1.0000000 -0.0000000 )
                  ( -0.0000000  0.0000000  1.0000000 )
                  ( -1.0000000  0.0000000  0.0000000 )


      isym = 19     120 deg rotation - cart. axis [1,1,-1]       

 cryst.   s(19) = (    -1          1          0      )
                  (    -1          0          0      )
                  (    -1          0          1      )

 cart.    s(19) = ( -0.0000000  1.0000000  0.0000000 )
                  ( -0.0000000 -0.0000000 -1.0000000 )
                  ( -1.0000000 -0.0000000 -0.0000000 )


      isym = 20     120 deg rotation - cart. axis [1,-1,1]       

 cryst.   s(20) = (     0          0         -1      )
                  (     0          1         -1      )
                  (     1          0         -1      )

 cart.    s(20) = (  0.0000000 -1.0000000  0.0000000 )
                  (  0.0000000  0.0000000 -1.0000000 )
                  (  1.0000000  0.0000000 -0.0000000 )


      isym = 21     120 deg rotation - cart. axis [1,1,1]        

 cryst.   s(21) = (     0          1          0      )
                  (     0          0          1      )
                  (     1          0          0      )

 cart.    s(21) = ( -0.0000000  0.0000000  1.0000000 )
                  (  1.0000000  0.0000000 -0.0000000 )
                  (  0.0000000  1.0000000 -0.0000000 )


      isym = 22     120 deg rotation - cart. axis [-1,1,-1]      

 cryst.   s(22) = (    -1          0          1      )
                  (    -1          1          0      )
                  (    -1          0          0      )

 cart.    s(22) = (  0.0000000 -0.0000000  1.0000000 )
                  ( -1.0000000 -0.0000000 -0.0000000 )
                  ( -0.0000000 -1.0000000 -0.0000000 )


      isym = 23     120 deg rotation - cart. axis [1,-1,-1]      

 cryst.   s(23) = (     1          0         -1      )
                  (     0          0         -1      )
                  (     0          1         -1      )

 cart.    s(23) = (  0.0000000  0.0000000 -1.0000000 )
                  ( -1.0000000  0.0000000  0.0000000 )
                  ( -0.0000000  1.0000000  0.0000000 )


      isym = 24     120 deg rotation - cart. axis [-1,-1,1]      

 cryst.   s(24) = (     0         -1          0      )
                  (     1         -1          0      )
                  (     0         -1          1      )

 cart.    s(24) = ( -0.0000000 -0.0000000 -1.0000000 )
                  (  1.0000000 -0.0000000  0.0000000 )
                  (  0.0000000 -1.0000000  0.0000000 )


      isym = 25     inversion                                    

 cryst.   s(25) = (    -1          0          0      )
                  (     0         -1          0      )
                  (     0          0         -1      )

 cart.    s(25) = ( -1.0000000  0.0000000 -0.0000000 )
                  (  0.0000000 -1.0000000 -0.0000000 )
                  (  0.0000000 -0.0000000 -1.0000000 )


      isym = 26     inv. 180 deg rotation - cart. axis [0,0,1]   

 cryst.   s(26) = (     0         -1          1      )
                  (    -1          0          1      )
                  (     0          0          1      )

 cart.    s(26) = (  1.0000000 -0.0000000 -0.0000000 )
                  ( -0.0000000  1.0000000 -0.0000000 )
                  ( -0.0000000  0.0000000 -1.0000000 )


      isym = 27     inv. 180 deg rotation - cart. axis [0,1,0]   

 cryst.   s(27) = (     0          1         -1      )
                  (     0          1          0      )
                  (    -1          1          0      )

 cart.    s(27) = (  1.0000000  0.0000000  0.0000000 )
                  ( -0.0000000 -1.0000000  0.0000000 )
                  ( -0.0000000 -0.0000000  1.0000000 )


      isym = 28     inv. 180 deg rotation - cart. axis [1,0,0]   

 cryst.   s(28) = (     1          0          0      )
                  (     1          0         -1      )
                  (     1         -1          0      )

 cart.    s(28) = ( -1.0000000 -0.0000000  0.0000000 )
                  (  0.0000000  1.0000000  0.0000000 )
                  (  0.0000000  0.0000000  1.0000000 )


      isym = 29     inv. 180 deg rotation - cart. axis [1,1,0]   

 cryst.   s(29) = (     1          0         -1      )
                  (     0          1         -1      )
                  (     0          0         -1      )

 cart.    s(29) = (  0.0000000 -1.0000000  0.0000000 )
                  ( -1.0000000  0.0000000  0.0000000 )
                  ( -0.0000000  0.0000000  1.0000000 )


      isym = 30     inv. 180 deg rotation - cart. axis [1,-1,0]  

 cryst.   s(30) = (     0          1          0      )
                  (     1          0          0      )
                  (     0          0          1      )

 cart.    s(30) = ( -0.0000000  1.0000000  0.0000000 )
                  (  1.0000000 -0.0000000  0.0000000 )
                  (  0.0000000 -0.0000000  1.0000000 )


      isym = 31     inv.  90 deg rotation - cart. axis [0,0,-1]  

 cryst.   s(31) = (     0         -1          0      )
                  (     0         -1          1      )
                  (     1         -1          0      )

 cart.    s(31) = ( -0.0000000 -1.0000000 -0.0000000 )
                  (  1.0000000  0.0000000 -0.0000000 )
                  (  0.0000000  0.0000000 -1.0000000 )


      isym = 32     inv.  90 deg rotation - cart. axis [0,0,1]   

 cryst.   s(32) = (    -1          0          1      )
                  (    -1          0          0      )
                  (    -1          1          0      )

 cart.    s(32) = (  0.0000000  1.0000000 -0.0000000 )
                  ( -1.0000000 -0.0000000 -0.0000000 )
                  ( -0.0000000 -0.0000000 -1.0000000 )


      isym = 33     inv. 180 deg rotation - cart. axis [1,0,1]   

 cryst.   s(33) = (     1         -1          0      )
                  (     0         -1          0      )
                  (     0         -1          1      )

 cart.    s(33) = ( -0.0000000 -0.0000000 -1.0000000 )
                  ( -0.0000000  1.0000000  0.0000000 )
                  ( -1.0000000  0.0000000  0.0000000 )


      isym = 34     inv. 180 deg rotation - cart. axis [-1,0,1]  

 cryst.   s(34) = (     0          0          1      )
                  (     0          1          0      )
                  (     1          0          0      )

 cart.    s(34) = (  0.0000000 -0.0000000  1.0000000 )
                  (  0.0000000  1.0000000 -0.0000000 )
                  (  1.0000000  0.0000000 -0.0000000 )


      isym = 35     inv.  90 deg rotation - cart. axis [0,1,0]   

 cryst.   s(35) = (     0          0         -1      )
                  (     1          0         -1      )
                  (     0          1         -1      )

 cart.    s(35) = (  0.0000000  0.0000000 -1.0000000 )
                  (  0.0000000 -1.0000000  0.0000000 )
                  (  1.0000000 -0.0000000  0.0000000 )


      isym = 36     inv.  90 deg rotation - cart. axis [0,-1,0]  

 cryst.   s(36) = (    -1          1          0      )
                  (    -1          0          1      )
                  (    -1          0          0      )

 cart.    s(36) = ( -0.0000000  0.0000000  1.0000000 )
                  ( -0.0000000 -1.0000000 -0.0000000 )
                  ( -1.0000000 -0.0000000 -0.0000000 )


      isym = 37     inv. 180 deg rotation - cart. axis [0,1,1]   

 cryst.   s(37) = (    -1          0          0      )
                  (    -1          1          0      )
                  (    -1          0          1      )

 cart.    s(37) = (  1.0000000 -0.0000000  0.0000000 )
                  ( -0.0000000 -0.0000000 -1.0000000 )
                  ( -0.0000000 -1.0000000 -0.0000000 )


      isym = 38     inv. 180 deg rotation - cart. axis [0,1,-1]  

 cryst.   s(38) = (     1          0          0      )
                  (     0          0          1      )
                  (     0          1          0      )

 cart.    s(38) = (  1.0000000  0.0000000 -0.0000000 )
                  ( -0.0000000  0.0000000  1.0000000 )
                  ( -0.0000000  1.0000000  0.0000000 )


      isym = 39     inv.  90 deg rotation - cart. axis [-1,0,0]  

 cryst.   s(39) = (     0          1         -1      )
                  (     0          0         -1      )
                  (     1          0         -1      )

 cart.    s(39) = ( -1.0000000  0.0000000  0.0000000 )
                  (  0.0000000  0.0000000 -1.0000000 )
                  (  0.0000000  1.0000000 -0.0000000 )


      isym = 40     inv.  90 deg rotation - cart. axis [1,0,0]   

 cryst.   s(40) = (     0         -1          1      )
                  (     1         -1          0      )
                  (     0         -1          0      )

 cart.    s(40) = ( -1.0000000 -0.0000000 -0.0000000 )
                  (  0.0000000 -0.0000000  1.0000000 )
                  (  0.0000000 -1.0000000  0.0000000 )


      isym = 41     inv. 120 deg rotation - cart. axis [-1,-1,-1]

 cryst.   s(41) = (     0          0         -1      )
                  (    -1          0          0      )
                  (     0         -1          0      )

 cart.    s(41) = ( -0.0000000 -1.0000000  0.0000000 )
                  ( -0.0000000  0.0000000 -1.0000000 )
                  ( -1.0000000  0.0000000 -0.0000000 )


      isym = 42     inv. 120 deg rotation - cart. axis [-1,1,1]  

 cryst.   s(42) = (    -1          1          0      )
                  (     0          1         -1      )
                  (     0          1          0      )

 cart.    s(42) = (  0.0000000  1.0000000  0.0000000 )
                  (  0.0000000 -0.0000000 -1.0000000 )
                  (  1.0000000 -0.0000000 -0.0000000 )


      isym = 43     inv. 120 deg rotation - cart. axis [1,1,-1]  

 cryst.   s(43) = (     1         -1          0      )
                  (     1          0          0      )
                  (     1          0         -1      )

 cart.    s(43) = (  0.0000000 -1.0000000 -0.0000000 )
                  (  0.0000000  0.0000000  1.0000000 )
                  (  1.0000000  0.0000000  0.0000000 )


      isym = 44     inv. 120 deg rotation - cart. axis [1,-1,1]  

 cryst.   s(44) = (     0          0          1      )
                  (     0         -1          1      )
                  (    -1          0          1      )

 cart.    s(44) = ( -0.0000000  1.0000000 -0.0000000 )
                  ( -0.0000000 -0.0000000  1.0000000 )
                  ( -1.0000000 -0.0000000  0.0000000 )


      isym = 45     inv. 120 deg rotation - cart. axis [1,1,1]   

 cryst.   s(45) = (     0         -1          0      )
                  (     0          0         -1      )
                  (    -1          0          0      )

 cart.    s(45) = (  0.0000000 -0.0000000 -1.0000000 )
                  ( -1.0000000 -0.0000000  0.0000000 )
                  ( -0.0000000 -1.0000000  0.0000000 )


      isym = 46     inv. 120 deg rotation - cart. axis [-1,1,-1] 

 cryst.   s(46) = (     1          0         -1      )
                  (     1         -1          0      )
                  (     1          0          0      )

 cart.    s(46) = ( -0.0000000  0.0000000 -1.0000000 )
                  (  1.0000000  0.0000000  0.0000000 )
                  (  0.0000000  1.0000000  0.0000000 )


      isym = 47     inv. 120 deg rotation - cart. axis [1,-1,-1] 

 cryst.   s(47) = (    -1          0          1      )
                  (     0          0          1      )
                  (     0         -1          1      )

 cart.    s(47) = ( -0.0000000 -0.0000000  1.0000000 )
                  (  1.0000000 -0.0000000 -0.0000000 )
                  (  0.0000000 -1.0000000 -0.0000000 )


      isym = 48     inv. 120 deg rotation - cart. axis [-1,-1,1] 

 cryst.   s(48) = (     0          1          0      )
                  (    -1          1          0      )
                  (     0          1         -1      )

 cart.    s(48) = (  0.0000000  0.0000000  1.0000000 )
                  ( -1.0000000  0.0000000 -0.0000000 )
                  ( -0.0000000  1.0000000 -0.0000000 )


   Cartesian axes

     site n.     atom                  positions (alat units)
         1           Sc  tau(   1) = (   0.3535534   0.3535534   1.0606602  )
         2           Sc  tau(   2) = (   0.3535534   1.0606602   1.0606602  )
         3           Mn  tau(   3) = (   0.7071068   0.0000000   0.0000000  )
         4           Si  tau(   4) = (   0.0000000   0.0000000   0.0000000  )

   Crystallographic axes

     site n.     atom                  positions (cryst. coord.)
         1           Sc  tau(   1) = (  0.7500000  0.7500000 -0.2500000  )
         2           Sc  tau(   2) = (  1.2500000  0.2500000  0.2500000  )
         3           Mn  tau(   3) = ( -0.5000000  0.5000000  0.5000000  )
         4           Si  tau(   4) = (  0.0000000  0.0000000  0.0000000  )

     number of k points=    72  Marzari-Vanderbilt smearing, width (Ry)=  0.0100
                       cart. coord. in units 2pi/alat
        k(    1) = (   0.0000000   0.0000000   0.0000000), wk =   0.0005787
        k(    2) = (   0.0589256   0.0589256  -0.0589256), wk =   0.0046296
        k(    3) = (   0.1178511   0.1178511  -0.1178511), wk =   0.0046296
        k(    4) = (   0.1767767   0.1767767  -0.1767767), wk =   0.0046296
        k(    5) = (   0.2357023   0.2357023  -0.2357023), wk =   0.0046296
        k(    6) = (   0.2946278   0.2946278  -0.2946278), wk =   0.0046296
        k(    7) = (  -0.3535534  -0.3535534   0.3535534), wk =   0.0023148
        k(    8) = (   0.1178511   0.0000000  -0.0000000), wk =   0.0034722
        k(    9) = (   0.1767767   0.0589256  -0.0589256), wk =   0.0138889
        k(   10) = (   0.2357023   0.1178511  -0.1178511), wk =   0.0138889
        k(   11) = (   0.2946278   0.1767767  -0.1767767), wk =   0.0138889
        k(   12) = (   0.3535534   0.2357023  -0.2357023), wk =   0.0138889
        k(   13) = (  -0.2946278  -0.4124790   0.4124790), wk =   0.0138889
        k(   14) = (  -0.2357023  -0.3535534   0.3535534), wk =   0.0138889
        k(   15) = (  -0.1767767  -0.2946278   0.2946278), wk =   0.0138889
        k(   16) = (  -0.1178511  -0.2357023   0.2357023), wk =   0.0138889
        k(   17) = (  -0.0589256  -0.1767767   0.1767767), wk =   0.0138889
        k(   18) = (  -0.0000000  -0.1178511   0.1178511), wk =   0.0069444
        k(   19) = (   0.2357023   0.0000000  -0.0000000), wk =   0.0034722
        k(   20) = (   0.2946278   0.0589256  -0.0589256), wk =   0.0138889
        k(   21) = (   0.3535534   0.1178511  -0.1178511), wk =   0.0138889
        k(   22) = (   0.4124790   0.1767767  -0.1767767), wk =   0.0138889
        k(   23) = (  -0.2357023  -0.4714045   0.4714045), wk =   0.0138889
        k(   24) = (  -0.1767767  -0.4124790   0.4124790), wk =   0.0138889
        k(   25) = (  -0.1178511  -0.3535534   0.3535534), wk =   0.0138889
        k(   26) = (  -0.0589256  -0.2946278   0.2946278), wk =   0.0138889
        k(   27) = (   0.0000000  -0.2357023   0.2357023), wk =   0.0069444
        k(   28) = (   0.3535534   0.0000000   0.0000000), wk =   0.0034722
        k(   29) = (   0.4124790   0.0589256  -0.0589256), wk =   0.0138889
        k(   30) = (   0.4714045   0.1178511  -0.1178511), wk =   0.0138889
        k(   31) = (  -0.1767767  -0.5303301   0.5303301), wk =   0.0138889
        k(   32) = (  -0.1178511  -0.4714045   0.4714045), wk =   0.0138889
        k(   33) = (  -0.0589256  -0.4124790   0.4124790), wk =   0.0138889
        k(   34) = (   0.0000000  -0.3535534   0.3535534), wk =   0.0069444
        k(   35) = (   0.4714045   0.0000000  -0.0000000), wk =   0.0034722
        k(   36) = (   0.5303301   0.0589256  -0.0589256), wk =   0.0138889
        k(   37) = (  -0.1178511  -0.5892557   0.5892557), wk =   0.0138889
        k(   38) = (  -0.0589256  -0.5303301   0.5303301), wk =   0.0138889
        k(   39) = (  -0.0000000  -0.4714045   0.4714045), wk =   0.0069444
        k(   40) = (   0.5892557   0.0000000  -0.0000000), wk =   0.0034722
        k(   41) = (  -0.0589256  -0.6481812   0.6481812), wk =   0.0138889
        k(   42) = (   0.0000000  -0.5892557   0.5892557), wk =   0.0069444
        k(   43) = (  -0.7071068   0.0000000   0.0000000), wk =   0.0017361
        k(   44) = (   0.2357023   0.1178511   0.0000000), wk =   0.0138889
        k(   45) = (   0.2946278   0.1767767  -0.0589256), wk =   0.0277778
        k(   46) = (   0.3535534   0.2357023  -0.1178511), wk =   0.0277778
        k(   47) = (  -0.2946278  -0.4124790   0.5303301), wk =   0.0277778
        k(   48) = (  -0.2357023  -0.3535534   0.4714045), wk =   0.0138889
        k(   49) = (   0.3535534   0.1178511  -0.0000000), wk =   0.0138889
        k(   50) = (   0.4124790   0.1767767  -0.0589256), wk =   0.0277778
        k(   51) = (  -0.2357023  -0.4714045   0.5892557), wk =   0.0277778
        k(   52) = (  -0.1767767  -0.4124790   0.5303301), wk =   0.0277778
        k(   53) = (  -0.1178511  -0.3535534   0.4714045), wk =   0.0277778
        k(   54) = (  -0.0589256  -0.2946278   0.4124790), wk =   0.0277778
        k(   55) = (   0.0000000  -0.2357023   0.3535534), wk =   0.0138889
        k(   56) = (   0.4714045   0.1178511  -0.0000000), wk =   0.0138889
        k(   57) = (  -0.1767767  -0.5303301   0.6481812), wk =   0.0277778
        k(   58) = (  -0.1178511  -0.4714045   0.5892557), wk =   0.0277778
        k(   59) = (  -0.0589256  -0.4124790   0.5303301), wk =   0.0277778
        k(   60) = (   0.0000000  -0.3535534   0.4714045), wk =   0.0138889
        k(   61) = (  -0.1178511  -0.5892557   0.7071068), wk =   0.0138889
        k(   62) = (  -0.0589256  -0.5303301   0.6481812), wk =   0.0277778
        k(   63) = (  -0.0000000  -0.4714045   0.5892557), wk =   0.0138889
        k(   64) = (  -0.7071068   0.1178511  -0.0000000), wk =   0.0069444
        k(   65) = (  -0.2357023  -0.4714045   0.7071068), wk =   0.0138889
        k(   66) = (  -0.1767767  -0.4124790   0.6481812), wk =   0.0277778
        k(   67) = (  -0.1178511  -0.3535534   0.5892557), wk =   0.0138889
        k(   68) = (  -0.1178511  -0.4714045   0.7071068), wk =   0.0138889
        k(   69) = (  -0.0589256  -0.4124790   0.6481812), wk =   0.0277778
        k(   70) = (   0.0000000  -0.3535534   0.5892557), wk =   0.0138889
        k(   71) = (  -0.7071068   0.2357023   0.0000000), wk =   0.0069444
        k(   72) = (  -0.7071068   0.3535534   0.0000000), wk =   0.0034722

                       cryst. coord.
        k(    1) = (   0.0000000   0.0000000   0.0000000), wk =   0.0005787
        k(    2) = (   0.0000000   0.0000000   0.0833333), wk =   0.0046296
        k(    3) = (   0.0000000   0.0000000   0.1666667), wk =   0.0046296
        k(    4) = (   0.0000000   0.0000000   0.2500000), wk =   0.0046296
        k(    5) = (   0.0000000   0.0000000   0.3333333), wk =   0.0046296
        k(    6) = (  -0.0000000  -0.0000000   0.4166667), wk =   0.0046296
        k(    7) = (  -0.0000000  -0.0000000  -0.5000000), wk =   0.0023148
        k(    8) = (  -0.0000000   0.0833333   0.0833333), wk =   0.0034722
        k(    9) = (   0.0000000   0.0833333   0.1666667), wk =   0.0138889
        k(   10) = (  -0.0000000   0.0833333   0.2500000), wk =   0.0138889
        k(   11) = (   0.0000000   0.0833333   0.3333333), wk =   0.0138889
        k(   12) = (  -0.0000000   0.0833333   0.4166667), wk =   0.0138889
        k(   13) = (  -0.0000000   0.0833333  -0.5000000), wk =   0.0138889
        k(   14) = (   0.0000000   0.0833333  -0.4166667), wk =   0.0138889
        k(   15) = (  -0.0000000   0.0833333  -0.3333333), wk =   0.0138889
        k(   16) = (  -0.0000000   0.0833333  -0.2500000), wk =   0.0138889
        k(   17) = (   0.0000000   0.0833333  -0.1666667), wk =   0.0138889
        k(   18) = (   0.0000000   0.0833333  -0.0833333), wk =   0.0069444
        k(   19) = (  -0.0000000   0.1666667   0.1666667), wk =   0.0034722
        k(   20) = (  -0.0000000   0.1666667   0.2500000), wk =   0.0138889
        k(   21) = (   0.0000000   0.1666667   0.3333333), wk =   0.0138889
        k(   22) = (   0.0000000   0.1666667   0.4166667), wk =   0.0138889
        k(   23) = (  -0.0000000   0.1666667  -0.5000000), wk =   0.0138889
        k(   24) = (  -0.0000000   0.1666667  -0.4166667), wk =   0.0138889
        k(   25) = (  -0.0000000   0.1666667  -0.3333333), wk =   0.0138889
        k(   26) = (   0.0000000   0.1666667  -0.2500000), wk =   0.0138889
        k(   27) = (   0.0000000   0.1666667  -0.1666667), wk =   0.0069444
        k(   28) = (   0.0000000   0.2500000   0.2500000), wk =   0.0034722
        k(   29) = (  -0.0000000   0.2500000   0.3333333), wk =   0.0138889
        k(   30) = (  -0.0000000   0.2500000   0.4166667), wk =   0.0138889
        k(   31) = (   0.0000000   0.2500000  -0.5000000), wk =   0.0138889
        k(   32) = (  -0.0000000   0.2500000  -0.4166667), wk =   0.0138889
        k(   33) = (  -0.0000000   0.2500000  -0.3333333), wk =   0.0138889
        k(   34) = (  -0.0000000   0.2500000  -0.2500000), wk =   0.0069444
        k(   35) = (  -0.0000000   0.3333333   0.3333333), wk =   0.0034722
        k(   36) = (  -0.0000000   0.3333333   0.4166667), wk =   0.0138889
        k(   37) = (   0.0000000   0.3333333  -0.5000000), wk =   0.0138889
        k(   38) = (  -0.0000000   0.3333333  -0.4166667), wk =   0.0138889
        k(   39) = (   0.0000000   0.3333333  -0.3333333), wk =   0.0069444
        k(   40) = (   0.0000000   0.4166667   0.4166667), wk =   0.0034722
        k(   41) = (   0.0000000   0.4166667  -0.5000000), wk =   0.0138889
        k(   42) = (   0.0000000   0.4166667  -0.4166667), wk =   0.0069444
        k(   43) = (   0.0000000  -0.5000000  -0.5000000), wk =   0.0017361
        k(   44) = (   0.0833333   0.1666667   0.2500000), wk =   0.0138889
        k(   45) = (   0.0833333   0.1666667   0.3333333), wk =   0.0277778
        k(   46) = (   0.0833333   0.1666667   0.4166667), wk =   0.0277778
        k(   47) = (   0.0833333   0.1666667  -0.5000000), wk =   0.0277778
        k(   48) = (   0.0833333   0.1666667  -0.4166667), wk =   0.0138889
        k(   49) = (   0.0833333   0.2500000   0.3333333), wk =   0.0138889
        k(   50) = (   0.0833333   0.2500000   0.4166667), wk =   0.0277778
        k(   51) = (   0.0833333   0.2500000  -0.5000000), wk =   0.0277778
        k(   52) = (   0.0833333   0.2500000  -0.4166667), wk =   0.0277778
        k(   53) = (   0.0833333   0.2500000  -0.3333333), wk =   0.0277778
        k(   54) = (   0.0833333   0.2500000  -0.2500000), wk =   0.0277778
        k(   55) = (   0.0833333   0.2500000  -0.1666667), wk =   0.0138889
        k(   56) = (   0.0833333   0.3333333   0.4166667), wk =   0.0138889
        k(   57) = (   0.0833333   0.3333333  -0.5000000), wk =   0.0277778
        k(   58) = (   0.0833333   0.3333333  -0.4166667), wk =   0.0277778
        k(   59) = (   0.0833333   0.3333333  -0.3333333), wk =   0.0277778
        k(   60) = (   0.0833333   0.3333333  -0.2500000), wk =   0.0138889
        k(   61) = (   0.0833333   0.4166667  -0.5000000), wk =   0.0138889
        k(   62) = (   0.0833333   0.4166667  -0.4166667), wk =   0.0277778
        k(   63) = (   0.0833333   0.4166667  -0.3333333), wk =   0.0138889
        k(   64) = (   0.0833333  -0.5000000  -0.4166667), wk =   0.0069444
        k(   65) = (   0.1666667   0.3333333  -0.5000000), wk =   0.0138889
        k(   66) = (   0.1666667   0.3333333  -0.4166667), wk =   0.0277778
        k(   67) = (   0.1666667   0.3333333  -0.3333333), wk =   0.0138889
        k(   68) = (   0.1666667   0.4166667  -0.4166667), wk =   0.0138889
        k(   69) = (   0.1666667   0.4166667  -0.3333333), wk =   0.0277778
        k(   70) = (   0.1666667   0.4166667  -0.2500000), wk =   0.0138889
        k(   71) = (   0.1666667  -0.5000000  -0.3333333), wk =   0.0069444
        k(   72) = (   0.2500000  -0.5000000  -0.2500000), wk =   0.0034722

     Dense  grid:   163281 G-vectors     FFT dimensions: (  80,  80,  80)

     Smooth grid:    31283 G-vectors     FFT dimensions: (  45,  45,  45)

     Dynamical RAM for                 wfc:       1.50 MB

     Dynamical RAM for     wfc (w. buffer):     217.49 MB

     Dynamical RAM for           str. fact:       7.47 MB

     Dynamical RAM for           local pot:       0.00 MB

     Dynamical RAM for          nlocal pot:       4.32 MB

     Dynamical RAM for                qrad:       6.72 MB

     Dynamical RAM for          rho,v,vnew:      38.39 MB

     Dynamical RAM for               rhoin:      12.80 MB

     Dynamical RAM for            rho*nmix:      79.73 MB

     Dynamical RAM for           G-vectors:       9.58 MB

     Dynamical RAM for          h,s,v(r/c):       0.11 MB

     Dynamical RAM for          <psi|beta>:       0.03 MB

     Dynamical RAM for                 psi:       3.00 MB

     Dynamical RAM for                hpsi:       3.00 MB

     Dynamical RAM for                spsi:       3.00 MB

     Dynamical RAM for      wfcinit/wfcrot:       3.01 MB

     Dynamical RAM for           addusdens:     468.40 MB

     Dynamical RAM for          addusforce:     468.40 MB

     Dynamical RAM for         addusstress:     504.52 MB

     Estimated static dynamical RAM per process >     330.17 MB

     Estimated max dynamical RAM per process >     914.42 MB

     Atomic positions and unit cell read from directory:
     ./out/aiida.save/
 

     Check: negative core charge=   -0.000007
     Generating pointlists ...
     new r_m :   0.2526 (alat units)  2.1636 (a.u.) for type    1
     new r_m :   0.2526 (alat units)  2.1636 (a.u.) for type    2
     new r_m :   0.2526 (alat units)  2.1636 (a.u.) for type    3

     The initial density is read from file :
     ./out/aiida.save/charge-density

     Starting wfcs from file

     total cpu time spent up to now is        2.9 secs

     per-process dynamical memory:   483.8 Mb

     Self-consistent Calculation
[tb_dev] Currently allocated     3.05E-05 Mbytes, locked:    0 /   2
[tb_pin] Currently allocated     0.00E+00 Mbytes, locked:    0 /   0

     iteration #  1     ecut=    65.00 Ry     beta= 0.20
     Davidson diagonalization with overlap

---- Real-time Memory Report at c_bands before calling an iterative solver
           616 MiB given to the printing process from OS
           483 MiB allocation reported by mallinfo(arena+hblkhd)
         59785 MiB available memory on the node where the printing process lives
     GPU memory used/free/total (MiB): 754 / 15526 / 16280
------------------
     ethr =  1.00E-05,  avg # of iterations =  1.2

     total cpu time spent up to now is        6.3 secs

     total energy              =    -406.10386037 Ry
     estimated scf accuracy    <       0.00043950 Ry

     total magnetization       =     1.28 Bohr mag/cell
     absolute magnetization    =     2.37 Bohr mag/cell
[tb_dev] Currently allocated     7.03E+00 Mbytes, locked:    0 /  18
[tb_pin] Currently allocated     0.00E+00 Mbytes, locked:    0 /   0

     iteration #  2     ecut=    65.00 Ry     beta= 0.20
     Davidson diagonalization with overlap

---- Real-time Memory Report at c_bands before calling an iterative solver
          1214 MiB given to the printing process from OS
          1021 MiB allocation reported by mallinfo(arena+hblkhd)
         58599 MiB available memory on the node where the printing process lives
     GPU memory used/free/total (MiB): 1420 / 14860 / 16280
------------------
     c_bands:  1 eigenvalues not converged
     ethr =  1.07E-06,  avg # of iterations =  5.3

     total cpu time spent up to now is       10.5 secs

     total energy              =    -406.10387148 Ry
     estimated scf accuracy    <       0.00233069 Ry

     total magnetization       =     1.26 Bohr mag/cell
     absolute magnetization    =     2.32 Bohr mag/cell
[tb_dev] Currently allocated     7.03E+00 Mbytes, locked:    0 /  18
[tb_pin] Currently allocated     0.00E+00 Mbytes, locked:    0 /   0

     iteration #  3     ecut=    65.00 Ry     beta= 0.20
     Davidson diagonalization with overlap

---- Real-time Memory Report at c_bands before calling an iterative solver
          1219 MiB given to the printing process from OS
          1025 MiB allocation reported by mallinfo(arena+hblkhd)
         58598 MiB available memory on the node where the printing process lives
     GPU memory used/free/total (MiB): 1468 / 14812 / 16280
------------------
     ethr =  1.07E-06,  avg # of iterations =  3.8

     total cpu time spent up to now is       13.8 secs

     total energy              =    -406.10398405 Ry
     estimated scf accuracy    <       0.00008685 Ry

     total magnetization       =     1.26 Bohr mag/cell
     absolute magnetization    =     2.34 Bohr mag/cell
[tb_dev] Currently allocated     7.03E+00 Mbytes, locked:    0 /  18
[tb_pin] Currently allocated     0.00E+00 Mbytes, locked:    0 /   0

     iteration #  4     ecut=    65.00 Ry     beta= 0.20
     Davidson diagonalization with overlap

---- Real-time Memory Report at c_bands before calling an iterative solver
          1222 MiB given to the printing process from OS
          1026 MiB allocation reported by mallinfo(arena+hblkhd)
         58599 MiB available memory on the node where the printing process lives
     GPU memory used/free/total (MiB): 1468 / 14812 / 16280
------------------
     ethr =  2.12E-07,  avg # of iterations =  4.8

     total cpu time spent up to now is       17.6 secs

     total energy              =    -406.10400340 Ry
     estimated scf accuracy    <       0.00007725 Ry

     total magnetization       =     1.26 Bohr mag/cell
     absolute magnetization    =     2.32 Bohr mag/cell
[tb_dev] Currently allocated     7.03E+00 Mbytes, locked:    0 /  18
[tb_pin] Currently allocated     0.00E+00 Mbytes, locked:    0 /   0

     iteration #  5     ecut=    65.00 Ry     beta= 0.20
     Davidson diagonalization with overlap

---- Real-time Memory Report at c_bands before calling an iterative solver
          1223 MiB given to the printing process from OS
          1028 MiB allocation reported by mallinfo(arena+hblkhd)
         58600 MiB available memory on the node where the printing process lives
     GPU memory used/free/total (MiB): 1468 / 14812 / 16280
------------------
     ethr =  1.88E-07,  avg # of iterations =  1.0

     total cpu time spent up to now is       19.8 secs

     total energy              =    -406.10398818 Ry
     estimated scf accuracy    <       0.00004931 Ry

     total magnetization       =     1.25 Bohr mag/cell
     absolute magnetization    =     2.32 Bohr mag/cell
[tb_dev] Currently allocated     7.03E+00 Mbytes, locked:    0 /  18
[tb_pin] Currently allocated     0.00E+00 Mbytes, locked:    0 /   0

     iteration #  6     ecut=    65.00 Ry     beta= 0.20
     Davidson diagonalization with overlap

---- Real-time Memory Report at c_bands before calling an iterative solver
          1225 MiB given to the printing process from OS
          1031 MiB allocation reported by mallinfo(arena+hblkhd)
         58598 MiB available memory on the node where the printing process lives
     GPU memory used/free/total (MiB): 1468 / 14812 / 16280
------------------
     ethr =  1.20E-07,  avg # of iterations =  6.4

     total cpu time spent up to now is       24.7 secs

     total energy              =    -406.10418792 Ry
     estimated scf accuracy    <       0.00035937 Ry

     total magnetization       =     1.17 Bohr mag/cell
     absolute magnetization    =     2.19 Bohr mag/cell
[tb_dev] Currently allocated     7.03E+00 Mbytes, locked:    0 /  18
[tb_pin] Currently allocated     0.00E+00 Mbytes, locked:    0 /   0

     iteration #  7     ecut=    65.00 Ry     beta= 0.20
     Davidson diagonalization with overlap

---- Real-time Memory Report at c_bands before calling an iterative solver
          1228 MiB given to the printing process from OS
          1034 MiB allocation reported by mallinfo(arena+hblkhd)
         58595 MiB available memory on the node where the printing process lives
     GPU memory used/free/total (MiB): 1536 / 14744 / 16280
------------------
     ethr =  1.20E-07,  avg # of iterations =  1.0

     total cpu time spent up to now is       27.1 secs

     total energy              =    -406.10409023 Ry
     estimated scf accuracy    <       0.00039714 Ry

     total magnetization       =     1.17 Bohr mag/cell
     absolute magnetization    =     2.18 Bohr mag/cell
[tb_dev] Currently allocated     7.03E+00 Mbytes, locked:    0 /  18
[tb_pin] Currently allocated     0.00E+00 Mbytes, locked:    0 /   0

     iteration #  8     ecut=    65.00 Ry     beta= 0.20
     Davidson diagonalization with overlap

---- Real-time Memory Report at c_bands before calling an iterative solver
          1231 MiB given to the printing process from OS
          1036 MiB allocation reported by mallinfo(arena+hblkhd)
         58592 MiB available memory on the node where the printing process lives
     GPU memory used/free/total (MiB): 1536 / 14744 / 16280
------------------
     ethr =  1.20E-07,  avg # of iterations =  3.9

     total cpu time spent up to now is       30.6 secs

     total energy              =    -406.10391467 Ry
     estimated scf accuracy    <       0.00052037 Ry

     total magnetization       =     1.21 Bohr mag/cell
     absolute magnetization    =     2.24 Bohr mag/cell
[tb_dev] Currently allocated     7.03E+00 Mbytes, locked:    0 /  18
[tb_pin] Currently allocated     0.00E+00 Mbytes, locked:    0 /   0

     iteration #  9     ecut=    65.00 Ry     beta= 0.20
     Davidson diagonalization with overlap

---- Real-time Memory Report at c_bands before calling an iterative solver
          1233 MiB given to the printing process from OS
          1038 MiB allocation reported by mallinfo(arena+hblkhd)
         58591 MiB available memory on the node where the printing process lives
     GPU memory used/free/total (MiB): 1536 / 14744 / 16280
------------------
     ethr =  1.20E-07,  avg # of iterations =  6.1

     total cpu time spent up to now is       35.5 secs

     total energy              =    -406.10399158 Ry
     estimated scf accuracy    <       0.00052241 Ry

     total magnetization       =     1.27 Bohr mag/cell
     absolute magnetization    =     2.33 Bohr mag/cell
[tb_dev] Currently allocated     7.03E+00 Mbytes, locked:    0 /  18
[tb_pin] Currently allocated     0.00E+00 Mbytes, locked:    0 /   0

     iteration # 10     ecut=    65.00 Ry     beta= 0.20
     Davidson diagonalization with overlap

---- Real-time Memory Report at c_bands before calling an iterative solver
          1235 MiB given to the printing process from OS
          1039 MiB allocation reported by mallinfo(arena+hblkhd)
         58589 MiB available memory on the node where the printing process lives
     GPU memory used/free/total (MiB): 1536 / 14744 / 16280
------------------
     ethr =  1.20E-07,  avg # of iterations =  1.2

     total cpu time spent up to now is       37.9 secs

     total energy              =    -406.10316628 Ry
     estimated scf accuracy    <       0.00057507 Ry

     total magnetization       =     1.29 Bohr mag/cell
     absolute magnetization    =     2.35 Bohr mag/cell
[tb_dev] Currently allocated     7.03E+00 Mbytes, locked:    0 /  18
[tb_pin] Currently allocated     0.00E+00 Mbytes, locked:    0 /   0

     iteration # 11     ecut=    65.00 Ry     beta= 0.20
     Davidson diagonalization with overlap

---- Real-time Memory Report at c_bands before calling an iterative solver
          1238 MiB given to the printing process from OS
          1039 MiB allocation reported by mallinfo(arena+hblkhd)
         58588 MiB available memory on the node where the printing process lives
     GPU memory used/free/total (MiB): 1536 / 14744 / 16280
------------------
     c_bands:  1 eigenvalues not converged
     c_bands:  1 eigenvalues not converged
     ethr =  1.20E-07,  avg # of iterations =  9.7

     total cpu time spent up to now is       44.5 secs

     total energy              =    -406.10376905 Ry
     estimated scf accuracy    <       0.00020372 Ry

     total magnetization       =     1.05 Bohr mag/cell
     absolute magnetization    =     2.02 Bohr mag/cell
[tb_dev] Currently allocated     7.03E+00 Mbytes, locked:    0 /  18
[tb_pin] Currently allocated     0.00E+00 Mbytes, locked:    0 /   0

     iteration # 12     ecut=    65.00 Ry     beta= 0.20
     Davidson diagonalization with overlap

---- Real-time Memory Report at c_bands before calling an iterative solver
          1238 MiB given to the printing process from OS
          1039 MiB allocation reported by mallinfo(arena+hblkhd)
         58588 MiB available memory on the node where the printing process lives
     GPU memory used/free/total (MiB): 1578 / 14702 / 16280
------------------
     c_bands:  1 eigenvalues not converged
     ethr =  1.20E-07,  avg # of iterations =  9.7

     total cpu time spent up to now is       51.1 secs

     total energy              =    -406.10309143 Ry
     estimated scf accuracy    <       0.00019337 Ry

     total magnetization       =     0.83 Bohr mag/cell
     absolute magnetization    =     1.69 Bohr mag/cell
[tb_dev] Currently allocated     7.03E+00 Mbytes, locked:    0 /  18
[tb_pin] Currently allocated     0.00E+00 Mbytes, locked:    0 /   0

     iteration # 13     ecut=    65.00 Ry     beta= 0.20
     Davidson diagonalization with overlap

---- Real-time Memory Report at c_bands before calling an iterative solver
          1238 MiB given to the printing process from OS
          1039 MiB allocation reported by mallinfo(arena+hblkhd)
         58588 MiB available memory on the node where the printing process lives
     GPU memory used/free/total (MiB): 1578 / 14702 / 16280
------------------
     ethr =  1.20E-07,  avg # of iterations =  9.5

     total cpu time spent up to now is       57.6 secs

     total energy              =    -406.08276889 Ry
     estimated scf accuracy    <       0.00032717 Ry

     total magnetization       =     1.06 Bohr mag/cell
     absolute magnetization    =     2.04 Bohr mag/cell
[tb_dev] Currently allocated     7.03E+00 Mbytes, locked:    0 /  18
[tb_pin] Currently allocated     0.00E+00 Mbytes, locked:    0 /   0

     iteration # 14     ecut=    65.00 Ry     beta= 0.20
     Davidson diagonalization with overlap

---- Real-time Memory Report at c_bands before calling an iterative solver
          1238 MiB given to the printing process from OS
          1039 MiB allocation reported by mallinfo(arena+hblkhd)
         58588 MiB available memory on the node where the printing process lives
     GPU memory used/free/total (MiB): 1578 / 14702 / 16280
------------------
     c_bands:  1 eigenvalues not converged
     c_bands:  1 eigenvalues not converged
     c_bands:  1 eigenvalues not converged
     c_bands:  1 eigenvalues not converged
     c_bands:  1 eigenvalues not converged
     c_bands:  1 eigenvalues not converged
     c_bands:  1 eigenvalues not converged
     c_bands:  1 eigenvalues not converged
     c_bands:  1 eigenvalues not converged
     c_bands:  1 eigenvalues not converged
     c_bands:  1 eigenvalues not converged
     c_bands:  1 eigenvalues not converged
     c_bands:  2 eigenvalues not converged
     c_bands:  1 eigenvalues not converged
     c_bands:  2 eigenvalues not converged
     ethr =  1.20E-07,  avg # of iterations = 14.6

     total cpu time spent up to now is       67.4 secs

     total energy              =    -406.09297369 Ry
     estimated scf accuracy    <       0.00205946 Ry

     total magnetization       =     1.99 Bohr mag/cell
     absolute magnetization    =     3.32 Bohr mag/cell
[tb_dev] Currently allocated     7.03E+00 Mbytes, locked:    0 /  18
[tb_pin] Currently allocated     0.00E+00 Mbytes, locked:    0 /   0

     iteration # 15     ecut=    65.00 Ry     beta= 0.20
     Davidson diagonalization with overlap

---- Real-time Memory Report at c_bands before calling an iterative solver
          1238 MiB given to the printing process from OS
          1039 MiB allocation reported by mallinfo(arena+hblkhd)
         58589 MiB available memory on the node where the printing process lives
     GPU memory used/free/total (MiB): 1578 / 14702 / 16280
------------------
     c_bands:  1 eigenvalues not converged
     c_bands:  1 eigenvalues not converged
     c_bands:  1 eigenvalues not converged
     c_bands:  1 eigenvalues not converged
     ethr =  1.20E-07,  avg # of iterations = 13.6

     total cpu time spent up to now is       76.3 secs

     total energy              =    -406.10258933 Ry
     estimated scf accuracy    <       0.00023007 Ry

     total magnetization       =     1.28 Bohr mag/cell
     absolute magnetization    =     2.36 Bohr mag/cell
[tb_dev] Currently allocated     7.03E+00 Mbytes, locked:    0 /  18
[tb_pin] Currently allocated     0.00E+00 Mbytes, locked:    0 /   0

     iteration # 16     ecut=    65.00 Ry     beta= 0.20
     Davidson diagonalization with overlap

---- Real-time Memory Report at c_bands before calling an iterative solver
          1238 MiB given to the printing process from OS
          1039 MiB allocation reported by mallinfo(arena+hblkhd)
         58590 MiB available memory on the node where the printing process lives
     GPU memory used/free/total (MiB): 1578 / 14702 / 16280
------------------
     c_bands:  1 eigenvalues not converged
     c_bands:  1 eigenvalues not converged
     ethr =  1.20E-07,  avg # of iterations = 10.7

     total cpu time spent up to now is       83.6 secs

     total energy              =    -406.09160771 Ry
     estimated scf accuracy    <       0.00129164 Ry

     total magnetization       =     0.98 Bohr mag/cell
     absolute magnetization    =     1.94 Bohr mag/cell
[tb_dev] Currently allocated     7.03E+00 Mbytes, locked:    0 /  18
[tb_pin] Currently allocated     0.00E+00 Mbytes, locked:    0 /   0

     iteration # 17     ecut=    65.00 Ry     beta= 0.20
     Davidson diagonalization with overlap

---- Real-time Memory Report at c_bands before calling an iterative solver
          1238 MiB given to the printing process from OS
          1039 MiB allocation reported by mallinfo(arena+hblkhd)
         58590 MiB available memory on the node where the printing process lives
     GPU memory used/free/total (MiB): 1578 / 14702 / 16280
------------------
     c_bands:  1 eigenvalues not converged
     c_bands:  1 eigenvalues not converged
     c_bands:  1 eigenvalues not converged
     c_bands:  1 eigenvalues not converged
     c_bands:  1 eigenvalues not converged
     c_bands:  1 eigenvalues not converged
     ethr =  1.20E-07,  avg # of iterations = 13.5

     total cpu time spent up to now is      102.3 secs

     total energy              =    -406.10224224 Ry
     estimated scf accuracy    <       0.00111130 Ry

     total magnetization       =     1.70 Bohr mag/cell
     absolute magnetization    =     2.94 Bohr mag/cell
[tb_dev] Currently allocated     7.03E+00 Mbytes, locked:    0 /  18
[tb_pin] Currently allocated     0.00E+00 Mbytes, locked:    0 /   0

     iteration # 18     ecut=    65.00 Ry     beta= 0.20
     Davidson diagonalization with overlap

---- Real-time Memory Report at c_bands before calling an iterative solver
          1238 MiB given to the printing process from OS
          1039 MiB allocation reported by mallinfo(arena+hblkhd)
         58591 MiB available memory on the node where the printing process lives
     GPU memory used/free/total (MiB): 1578 / 14702 / 16280
------------------
     c_bands:  1 eigenvalues not converged
     c_bands:  1 eigenvalues not converged
     ethr =  1.20E-07,  avg # of iterations =  9.4

     total cpu time spent up to now is      108.7 secs

     total energy              =    -406.10275217 Ry
     estimated scf accuracy    <       0.00161382 Ry

     total magnetization       =     1.88 Bohr mag/cell
     absolute magnetization    =     3.18 Bohr mag/cell
[tb_dev] Currently allocated     7.03E+00 Mbytes, locked:    0 /  18
[tb_pin] Currently allocated     0.00E+00 Mbytes, locked:    0 /   0

     iteration # 19     ecut=    65.00 Ry     beta= 0.20
     Davidson diagonalization with overlap

---- Real-time Memory Report at c_bands before calling an iterative solver
          1238 MiB given to the printing process from OS
          1039 MiB allocation reported by mallinfo(arena+hblkhd)
         58591 MiB available memory on the node where the printing process lives
     GPU memory used/free/total (MiB): 1578 / 14702 / 16280
------------------
     ethr =  1.20E-07,  avg # of iterations =  8.0

     total cpu time spent up to now is      114.4 secs

     total energy              =    -406.10316319 Ry
     estimated scf accuracy    <       0.00096775 Ry

     total magnetization       =     1.73 Bohr mag/cell
     absolute magnetization    =     2.98 Bohr mag/cell
[tb_dev] Currently allocated     7.03E+00 Mbytes, locked:    0 /  18
[tb_pin] Currently allocated     0.00E+00 Mbytes, locked:    0 /   0

     iteration # 20     ecut=    65.00 Ry     beta= 0.20
     Davidson diagonalization with overlap

---- Real-time Memory Report at c_bands before calling an iterative solver
          1238 MiB given to the printing process from OS
          1039 MiB allocation reported by mallinfo(arena+hblkhd)
         58594 MiB available memory on the node where the printing process lives
     GPU memory used/free/total (MiB): 1578 / 14702 / 16280
------------------
     ethr =  1.20E-07,  avg # of iterations =  4.2

     total cpu time spent up to now is      147.9 secs

     total energy              =    -406.09478473 Ry
     estimated scf accuracy    <       0.00074733 Ry

     total magnetization       =     1.77 Bohr mag/cell
     absolute magnetization    =     3.02 Bohr mag/cell
[tb_dev] Currently allocated     7.03E+00 Mbytes, locked:    0 /  18
[tb_pin] Currently allocated     0.00E+00 Mbytes, locked:    0 /   0

     iteration # 21     ecut=    65.00 Ry     beta= 0.20
     Davidson diagonalization with overlap

---- Real-time Memory Report at c_bands before calling an iterative solver
          1238 MiB given to the printing process from OS
          1039 MiB allocation reported by mallinfo(arena+hblkhd)
         58593 MiB available memory on the node where the printing process lives
     GPU memory used/free/total (MiB): 1578 / 14702 / 16280
------------------
     c_bands:  1 eigenvalues not converged
     c_bands:  1 eigenvalues not converged
     c_bands:  1 eigenvalues not converged
     c_bands:  1 eigenvalues not converged
     c_bands:  1 eigenvalues not converged
     c_bands:  1 eigenvalues not converged
     c_bands:  1 eigenvalues not converged
     c_bands:  1 eigenvalues not converged
     c_bands:  1 eigenvalues not converged
     ethr =  1.20E-07,  avg # of iterations = 12.9

     total cpu time spent up to now is      156.5 secs

     total energy              =    -406.10177908 Ry
     estimated scf accuracy    <       0.00311018 Ry

     total magnetization       =     2.30 Bohr mag/cell
     absolute magnetization    =     3.70 Bohr mag/cell
[tb_dev] Currently allocated     7.03E+00 Mbytes, locked:    0 /  18
[tb_pin] Currently allocated     0.00E+00 Mbytes, locked:    0 /   0

     iteration # 22     ecut=    65.00 Ry     beta= 0.20
     Davidson diagonalization with overlap

---- Real-time Memory Report at c_bands before calling an iterative solver
          1238 MiB given to the printing process from OS
          1039 MiB allocation reported by mallinfo(arena+hblkhd)
         58591 MiB available memory on the node where the printing process lives
     GPU memory used/free/total (MiB): 1578 / 14702 / 16280
------------------
     c_bands:  1 eigenvalues not converged
     ethr =  1.20E-07,  avg # of iterations =  7.7

     total cpu time spent up to now is      162.0 secs

     total energy              =    -406.10174417 Ry
     estimated scf accuracy    <       0.00179723 Ry

     total magnetization       =     2.17 Bohr mag/cell
     absolute magnetization    =     3.54 Bohr mag/cell
[tb_dev] Currently allocated     7.03E+00 Mbytes, locked:    0 /  18
[tb_pin] Currently allocated     0.00E+00 Mbytes, locked:    0 /   0

     iteration # 23     ecut=    65.00 Ry     beta= 0.20
     Davidson diagonalization with overlap

---- Real-time Memory Report at c_bands before calling an iterative solver
          1238 MiB given to the printing process from OS
          1039 MiB allocation reported by mallinfo(arena+hblkhd)
         58591 MiB available memory on the node where the printing process lives
     GPU memory used/free/total (MiB): 1578 / 14702 / 16280
------------------
     ethr =  1.20E-07,  avg # of iterations =  5.8

     total cpu time spent up to now is      166.6 secs

     total energy              =    -406.10087656 Ry
     estimated scf accuracy    <       0.00159086 Ry

     total magnetization       =     2.23 Bohr mag/cell
     absolute magnetization    =     3.61 Bohr mag/cell
[tb_dev] Currently allocated     7.03E+00 Mbytes, locked:    0 /  18
[tb_pin] Currently allocated     0.00E+00 Mbytes, locked:    0 /   0

     iteration # 24     ecut=    65.00 Ry     beta= 0.20
     Davidson diagonalization with overlap

---- Real-time Memory Report at c_bands before calling an iterative solver
          1238 MiB given to the printing process from OS
          1039 MiB allocation reported by mallinfo(arena+hblkhd)
         58591 MiB available memory on the node where the printing process lives
     GPU memory used/free/total (MiB): 1578 / 14702 / 16280
------------------
     c_bands:  1 eigenvalues not converged
     ethr =  1.20E-07,  avg # of iterations = 10.5

     total cpu time spent up to now is      173.8 secs

     total energy              =    -406.09966338 Ry
     estimated scf accuracy    <       0.00031878 Ry

     total magnetization       =     1.94 Bohr mag/cell
     absolute magnetization    =     3.24 Bohr mag/cell
[tb_dev] Currently allocated     7.03E+00 Mbytes, locked:    0 /  18
[tb_pin] Currently allocated     0.00E+00 Mbytes, locked:    0 /   0

     iteration # 25     ecut=    65.00 Ry     beta= 0.20
     Davidson diagonalization with overlap

---- Real-time Memory Report at c_bands before calling an iterative solver
          1238 MiB given to the printing process from OS
          1039 MiB allocation reported by mallinfo(arena+hblkhd)
         58592 MiB available memory on the node where the printing process lives
     GPU memory used/free/total (MiB): 1578 / 14702 / 16280
------------------
     c_bands:  1 eigenvalues not converged
     ethr =  1.20E-07,  avg # of iterations = 10.5

     total cpu time spent up to now is      181.1 secs

     total energy              =    -406.09641608 Ry
     estimated scf accuracy    <       0.00163849 Ry

     total magnetization       =     2.24 Bohr mag/cell
     absolute magnetization    =     3.62 Bohr mag/cell
[tb_dev] Currently allocated     7.03E+00 Mbytes, locked:    0 /  18
[tb_pin] Currently allocated     0.00E+00 Mbytes, locked:    0 /   0

     iteration # 26     ecut=    65.00 Ry     beta= 0.20
     Davidson diagonalization with overlap

---- Real-time Memory Report at c_bands before calling an iterative solver
          1238 MiB given to the printing process from OS
          1039 MiB allocation reported by mallinfo(arena+hblkhd)
         58592 MiB available memory on the node where the printing process lives
     GPU memory used/free/total (MiB): 1578 / 14702 / 16280
------------------
     c_bands:  1 eigenvalues not converged
     c_bands:  1 eigenvalues not converged
     c_bands:  1 eigenvalues not converged
     ethr =  1.20E-07,  avg # of iterations = 12.7

     total cpu time spent up to now is      189.5 secs

     total energy              =    -406.10333627 Ry
     estimated scf accuracy    <       0.00004492 Ry

     total magnetization       =     1.67 Bohr mag/cell
     absolute magnetization    =     2.89 Bohr mag/cell
[tb_dev] Currently allocated     7.03E+00 Mbytes, locked:    0 /  18
[tb_pin] Currently allocated     0.00E+00 Mbytes, locked:    0 /   0

     iteration # 27     ecut=    65.00 Ry     beta= 0.20
     Davidson diagonalization with overlap

---- Real-time Memory Report at c_bands before calling an iterative solver
          1238 MiB given to the printing process from OS
          1039 MiB allocation reported by mallinfo(arena+hblkhd)
         58592 MiB available memory on the node where the printing process lives
     GPU memory used/free/total (MiB): 1578 / 14702 / 16280
------------------
     ethr =  1.10E-07,  avg # of iterations =  5.8

     total cpu time spent up to now is      193.9 secs

     total energy              =    -406.10328644 Ry
     estimated scf accuracy    <       0.00005096 Ry

     total magnetization       =     1.63 Bohr mag/cell
     absolute magnetization    =     2.83 Bohr mag/cell
[tb_dev] Currently allocated     7.03E+00 Mbytes, locked:    0 /  18
[tb_pin] Currently allocated     0.00E+00 Mbytes, locked:    0 /   0

     iteration # 28     ecut=    65.00 Ry     beta= 0.20
     Davidson diagonalization with overlap

---- Real-time Memory Report at c_bands before calling an iterative solver
          1238 MiB given to the printing process from OS
          1039 MiB allocation reported by mallinfo(arena+hblkhd)
         58591 MiB available memory on the node where the printing process lives
     GPU memory used/free/total (MiB): 1578 / 14702 / 16280
------------------
     ethr =  1.10E-07,  avg # of iterations =  7.3

     total cpu time spent up to now is      199.3 secs

     total energy              =    -406.10345388 Ry
     estimated scf accuracy    <       0.00007378 Ry

     total magnetization       =     1.51 Bohr mag/cell
     absolute magnetization    =     2.69 Bohr mag/cell
[tb_dev] Currently allocated     7.03E+00 Mbytes, locked:    0 /  18
[tb_pin] Currently allocated     0.00E+00 Mbytes, locked:    0 /   0

     iteration # 29     ecut=    65.00 Ry     beta= 0.20
     Davidson diagonalization with overlap

---- Real-time Memory Report at c_bands before calling an iterative solver
          1238 MiB given to the printing process from OS
          1039 MiB allocation reported by mallinfo(arena+hblkhd)
         58592 MiB available memory on the node where the printing process lives
     GPU memory used/free/total (MiB): 1578 / 14702 / 16280
------------------
     ethr =  1.10E-07,  avg # of iterations =  4.7

     total cpu time spent up to now is      203.1 secs

     total energy              =    -406.10285011 Ry
     estimated scf accuracy    <       0.00008579 Ry

     total magnetization       =     1.56 Bohr mag/cell
     absolute magnetization    =     2.74 Bohr mag/cell
[tb_dev] Currently allocated     7.03E+00 Mbytes, locked:    0 /  18
[tb_pin] Currently allocated     0.00E+00 Mbytes, locked:    0 /   0

     iteration # 30     ecut=    65.00 Ry     beta= 0.20
     Davidson diagonalization with overlap

---- Real-time Memory Report at c_bands before calling an iterative solver
          1238 MiB given to the printing process from OS
          1039 MiB allocation reported by mallinfo(arena+hblkhd)
         58591 MiB available memory on the node where the printing process lives
     GPU memory used/free/total (MiB): 1578 / 14702 / 16280
------------------
     ethr =  1.10E-07,  avg # of iterations =  8.0

     total cpu time spent up to now is      208.8 secs

     total energy              =    -406.10327005 Ry
     estimated scf accuracy    <       0.00008630 Ry

     total magnetization       =     1.70 Bohr mag/cell
     absolute magnetization    =     2.92 Bohr mag/cell
[tb_dev] Currently allocated     7.03E+00 Mbytes, locked:    0 /  18
[tb_pin] Currently allocated     0.00E+00 Mbytes, locked:    0 /   0

     iteration # 31     ecut=    65.00 Ry     beta= 0.20
     Davidson diagonalization with overlap

---- Real-time Memory Report at c_bands before calling an iterative solver
          1238 MiB given to the printing process from OS
          1039 MiB allocation reported by mallinfo(arena+hblkhd)
         58592 MiB available memory on the node where the printing process lives
     GPU memory used/free/total (MiB): 1578 / 14702 / 16280
------------------
     ethr =  1.10E-07,  avg # of iterations =  1.1

     total cpu time spent up to now is      211.1 secs

     total energy              =    -406.08722426 Ry
     estimated scf accuracy    <       0.00010734 Ry

     total magnetization       =     1.70 Bohr mag/cell
     absolute magnetization    =     2.93 Bohr mag/cell
[tb_dev] Currently allocated     7.03E+00 Mbytes, locked:    0 /  18
[tb_pin] Currently allocated     0.00E+00 Mbytes, locked:    0 /   0

     iteration # 32     ecut=    65.00 Ry     beta= 0.20
     Davidson diagonalization with overlap

---- Real-time Memory Report at c_bands before calling an iterative solver
          1238 MiB given to the printing process from OS
          1039 MiB allocation reported by mallinfo(arena+hblkhd)
         58593 MiB available memory on the node where the printing process lives
     GPU memory used/free/total (MiB): 1578 / 14702 / 16280
------------------
     c_bands:  1 eigenvalues not converged
     c_bands:  1 eigenvalues not converged
     c_bands:  3 eigenvalues not converged
     c_bands:  2 eigenvalues not converged
     c_bands:  1 eigenvalues not converged
     c_bands:  2 eigenvalues not converged
     c_bands:  2 eigenvalues not converged
     ethr =  1.10E-07,  avg # of iterations = 13.9

     total cpu time spent up to now is      220.2 secs

     total energy              =    -406.08585089 Ry
     estimated scf accuracy    <       0.00250519 Ry

     total magnetization       =     2.42 Bohr mag/cell
     absolute magnetization    =     3.85 Bohr mag/cell
[tb_dev] Currently allocated     7.03E+00 Mbytes, locked:    0 /  18
[tb_pin] Currently allocated     0.00E+00 Mbytes, locked:    0 /   0

     iteration # 33     ecut=    65.00 Ry     beta= 0.20
     Davidson diagonalization with overlap

---- Real-time Memory Report at c_bands before calling an iterative solver
          1238 MiB given to the printing process from OS
          1039 MiB allocation reported by mallinfo(arena+hblkhd)
         58593 MiB available memory on the node where the printing process lives
     GPU memory used/free/total (MiB): 1578 / 14702 / 16280
------------------
     c_bands:  1 eigenvalues not converged
     c_bands:  1 eigenvalues not converged
     c_bands:  1 eigenvalues not converged
     c_bands:  2 eigenvalues not converged
     c_bands:  1 eigenvalues not converged
     c_bands:  1 eigenvalues not converged
     ethr =  1.10E-07,  avg # of iterations = 14.5

     total cpu time spent up to now is      229.7 secs

     total energy              =    -406.10358397 Ry
     estimated scf accuracy    <       0.00011244 Ry

     total magnetization       =     1.51 Bohr mag/cell
     absolute magnetization    =     2.69 Bohr mag/cell
[tb_dev] Currently allocated     7.03E+00 Mbytes, locked:    0 /  18
[tb_pin] Currently allocated     0.00E+00 Mbytes, locked:    0 /   0

     iteration # 34     ecut=    65.00 Ry     beta= 0.20
     Davidson diagonalization with overlap

---- Real-time Memory Report at c_bands before calling an iterative solver
          1238 MiB given to the printing process from OS
          1039 MiB allocation reported by mallinfo(arena+hblkhd)
         58593 MiB available memory on the node where the printing process lives
     GPU memory used/free/total (MiB): 1578 / 14702 / 16280
------------------
     c_bands:  1 eigenvalues not converged
     ethr =  1.10E-07,  avg # of iterations =  2.2

     total cpu time spent up to now is      232.5 secs

     total energy              =    -406.10312201 Ry
     estimated scf accuracy    <       0.00011343 Ry

     total magnetization       =     1.49 Bohr mag/cell
     absolute magnetization    =     2.67 Bohr mag/cell
[tb_dev] Currently allocated     7.03E+00 Mbytes, locked:    0 /  18
[tb_pin] Currently allocated     0.00E+00 Mbytes, locked:    0 /   0

     iteration # 35     ecut=    65.00 Ry     beta= 0.20
     Davidson diagonalization with overlap

---- Real-time Memory Report at c_bands before calling an iterative solver
          1238 MiB given to the printing process from OS
          1039 MiB allocation reported by mallinfo(arena+hblkhd)
         58592 MiB available memory on the node where the printing process lives
     GPU memory used/free/total (MiB): 1578 / 14702 / 16280
------------------
     ethr =  1.10E-07,  avg # of iterations =  6.8

     total cpu time spent up to now is      237.5 secs

     total energy              =    -406.10333372 Ry
     estimated scf accuracy    <       0.00010509 Ry

     total magnetization       =     1.61 Bohr mag/cell
     absolute magnetization    =     2.81 Bohr mag/cell
[tb_dev] Currently allocated     7.03E+00 Mbytes, locked:    0 /  18
[tb_pin] Currently allocated     0.00E+00 Mbytes, locked:    0 /   0

     iteration # 36     ecut=    65.00 Ry     beta= 0.20
     Davidson diagonalization with overlap

---- Real-time Memory Report at c_bands before calling an iterative solver
          1238 MiB given to the printing process from OS
          1039 MiB allocation reported by mallinfo(arena+hblkhd)
         58592 MiB available memory on the node where the printing process lives
     GPU memory used/free/total (MiB): 1578 / 14702 / 16280
------------------
     ethr =  1.10E-07,  avg # of iterations =  4.4

     total cpu time spent up to now is      241.2 secs

     total energy              =    -406.10293435 Ry
     estimated scf accuracy    <       0.00009190 Ry

     total magnetization       =     1.65 Bohr mag/cell
     absolute magnetization    =     2.85 Bohr mag/cell
[tb_dev] Currently allocated     7.03E+00 Mbytes, locked:    0 /  18
[tb_pin] Currently allocated     0.00E+00 Mbytes, locked:    0 /   0

     iteration # 37     ecut=    65.00 Ry     beta= 0.20
     Davidson diagonalization with overlap

---- Real-time Memory Report at c_bands before calling an iterative solver
          1238 MiB given to the printing process from OS
          1039 MiB allocation reported by mallinfo(arena+hblkhd)
         58593 MiB available memory on the node where the printing process lives
     GPU memory used/free/total (MiB): 1578 / 14702 / 16280
------------------
     ethr =  1.10E-07,  avg # of iterations =  7.2

     total cpu time spent up to now is      246.6 secs

     total energy              =    -406.10240397 Ry
     estimated scf accuracy    <       0.00011812 Ry

     total magnetization       =     1.75 Bohr mag/cell
     absolute magnetization    =     2.99 Bohr mag/cell
[tb_dev] Currently allocated     7.03E+00 Mbytes, locked:    0 /  18
[tb_pin] Currently allocated     0.00E+00 Mbytes, locked:    0 /   0

     iteration # 38     ecut=    65.00 Ry     beta= 0.20
     Davidson diagonalization with overlap

---- Real-time Memory Report at c_bands before calling an iterative solver
          1238 MiB given to the printing process from OS
          1039 MiB allocation reported by mallinfo(arena+hblkhd)
         58593 MiB available memory on the node where the printing process lives
     GPU memory used/free/total (MiB): 1578 / 14702 / 16280
------------------
     ethr =  1.10E-07,  avg # of iterations =  9.5

     total cpu time spent up to now is      253.1 secs

     total energy              =    -406.10353650 Ry
     estimated scf accuracy    <       0.00013301 Ry

     total magnetization       =     1.52 Bohr mag/cell
     absolute magnetization    =     2.69 Bohr mag/cell
[tb_dev] Currently allocated     7.03E+00 Mbytes, locked:    0 /  18
[tb_pin] Currently allocated     0.00E+00 Mbytes, locked:    0 /   0

     iteration # 39     ecut=    65.00 Ry     beta= 0.20
     Davidson diagonalization with overlap

---- Real-time Memory Report at c_bands before calling an iterative solver
          1238 MiB given to the printing process from OS
          1039 MiB allocation reported by mallinfo(arena+hblkhd)
         58593 MiB available memory on the node where the printing process lives
     GPU memory used/free/total (MiB): 1578 / 14702 / 16280
------------------
     ethr =  1.10E-07,  avg # of iterations =  6.4

     total cpu time spent up to now is      258.0 secs

     total energy              =    -406.10373056 Ry
     estimated scf accuracy    <       0.00015527 Ry

     total magnetization       =     1.43 Bohr mag/cell
     absolute magnetization    =     2.58 Bohr mag/cell
[tb_dev] Currently allocated     7.03E+00 Mbytes, locked:    0 /  18
[tb_pin] Currently allocated     0.00E+00 Mbytes, locked:    0 /   0

     iteration # 40     ecut=    65.00 Ry     beta= 0.20
     Davidson diagonalization with overlap

---- Real-time Memory Report at c_bands before calling an iterative solver
          1238 MiB given to the printing process from OS
          1039 MiB allocation reported by mallinfo(arena+hblkhd)
         58593 MiB available memory on the node where the printing process lives
     GPU memory used/free/total (MiB): 1578 / 14702 / 16280
------------------
     ethr =  1.10E-07,  avg # of iterations =  5.9

     total cpu time spent up to now is      262.7 secs

     total energy              =    -406.10350252 Ry
     estimated scf accuracy    <       0.00016289 Ry

     total magnetization       =     1.38 Bohr mag/cell
     absolute magnetization    =     2.50 Bohr mag/cell
[tb_dev] Currently allocated     7.03E+00 Mbytes, locked:    0 /  18
[tb_pin] Currently allocated     0.00E+00 Mbytes, locked:    0 /   0

     iteration # 41     ecut=    65.00 Ry     beta= 0.20
     Davidson diagonalization with overlap

---- Real-time Memory Report at c_bands before calling an iterative solver
          1238 MiB given to the printing process from OS
          1039 MiB allocation reported by mallinfo(arena+hblkhd)
         58592 MiB available memory on the node where the printing process lives
     GPU memory used/free/total (MiB): 1578 / 14702 / 16280
------------------
     c_bands:  1 eigenvalues not converged
     ethr =  1.10E-07,  avg # of iterations =  8.9

     total cpu time spent up to now is      268.8 secs

     total energy              =    -406.10100230 Ry
     estimated scf accuracy    <       0.00033187 Ry

     total magnetization       =     1.23 Bohr mag/cell
     absolute magnetization    =     2.28 Bohr mag/cell
[tb_dev] Currently allocated     7.03E+00 Mbytes, locked:    0 /  18
[tb_pin] Currently allocated     0.00E+00 Mbytes, locked:    0 /   0

     iteration # 42     ecut=    65.00 Ry     beta= 0.20
     Davidson diagonalization with overlap

---- Real-time Memory Report at c_bands before calling an iterative solver
          1238 MiB given to the printing process from OS
          1039 MiB allocation reported by mallinfo(arena+hblkhd)
         58592 MiB available memory on the node where the printing process lives
     GPU memory used/free/total (MiB): 1578 / 14702 / 16280
------------------
     c_bands:  1 eigenvalues not converged
     c_bands:  1 eigenvalues not converged
     c_bands:  1 eigenvalues not converged
     c_bands:  1 eigenvalues not converged
     c_bands:  1 eigenvalues not converged
     c_bands:  1 eigenvalues not converged
     c_bands:  2 eigenvalues not converged
     c_bands:  1 eigenvalues not converged
[...]
     c_bands:  2 eigenvalues not converged
     c_bands:  1 eigenvalues not converged
     c_bands:  1 eigenvalues not converged
     c_bands:  1 eigenvalues not converged
     c_bands:  1 eigenvalues not converged
     c_bands:  1 eigenvalues not converged
     c_bands:  3 eigenvalues not converged
     c_bands:  1 eigenvalues not converged
     c_bands:  2 eigenvalues not converged
     c_bands:  1 eigenvalues not converged
     c_bands:  1 eigenvalues not converged
     c_bands:  2 eigenvalues not converged
     c_bands:  1 eigenvalues not converged
     c_bands:  1 eigenvalues not converged
     c_bands:  2 eigenvalues not converged
     c_bands:  1 eigenvalues not converged
     c_bands:  1 eigenvalues not converged
     c_bands:  4 eigenvalues not converged
     c_bands:  2 eigenvalues not converged
     c_bands:  2 eigenvalues not converged
     c_bands:  4 eigenvalues not converged
     c_bands:  1 eigenvalues not converged
     c_bands:  1 eigenvalues not converged
     c_bands:  2 eigenvalues not converged
     c_bands:  1 eigenvalues not converged
     c_bands:  1 eigenvalues not converged
     c_bands:  1 eigenvalues not converged
     c_bands:  2 eigenvalues not converged
     c_bands:  1 eigenvalues not converged
     c_bands:  3 eigenvalues not converged
     ethr =  1.10E-07,  avg # of iterations = 17.4

     total cpu time spent up to now is      441.1 secs

     total energy              =    -406.09978928 Ry
     estimated scf accuracy    <       0.00051373 Ry

     total magnetization       =     1.86 Bohr mag/cell
     absolute magnetization    =     3.14 Bohr mag/cell
[tb_dev] Currently allocated     7.03E+00 Mbytes, locked:    0 /  18
[tb_pin] Currently allocated     0.00E+00 Mbytes, locked:    0 /   0

     iteration # 67     ecut=    65.00 Ry     beta= 0.20
     Davidson diagonalization with overlap

---- Real-time Memory Report at c_bands before calling an iterative solver
          1238 MiB given to the printing process from OS
          1039 MiB allocation reported by mallinfo(arena+hblkhd)
         58592 MiB available memory on the node where the printing process lives
     GPU memory used/free/total (MiB): 1578 / 14702 / 16280
------------------
     ethr =  1.10E-07,  avg # of iterations = 10.8

     total cpu time spent up to now is      448.5 secs

     total energy              =    -406.09224872 Ry
     estimated scf accuracy    <       0.00155354 Ry

     total magnetization       =     2.18 Bohr mag/cell
     absolute magnetization    =     3.54 Bohr mag/cell
[tb_dev] Currently allocated     7.03E+00 Mbytes, locked:    0 /  18
[tb_pin] Currently allocated     0.00E+00 Mbytes, locked:    0 /   0

     iteration # 68     ecut=    65.00 Ry     beta= 0.20
     Davidson diagonalization with overlap

---- Real-time Memory Report at c_bands before calling an iterative solver
          1238 MiB given to the printing process from OS
          1039 MiB allocation reported by mallinfo(arena+hblkhd)
         58592 MiB available memory on the node where the printing process lives
     GPU memory used/free/total (MiB): 1578 / 14702 / 16280
------------------
     c_bands:  1 eigenvalues not converged
     c_bands:  1 eigenvalues not converged
     c_bands:  1 eigenvalues not converged
     c_bands:  1 eigenvalues not converged
     c_bands:  1 eigenvalues not converged
     c_bands:  1 eigenvalues not converged
     c_bands:  1 eigenvalues not converged
     c_bands:  1 eigenvalues not converged
     c_bands:  1 eigenvalues not converged
     ethr =  1.10E-07,  avg # of iterations = 14.0

     total cpu time spent up to now is      457.9 secs

     total energy              =    -406.10360373 Ry
     estimated scf accuracy    <       0.00012644 Ry

     total magnetization       =     1.44 Bohr mag/cell
     absolute magnetization    =     2.59 Bohr mag/cell
[tb_dev] Currently allocated     7.03E+00 Mbytes, locked:    0 /  18
[tb_pin] Currently allocated     0.00E+00 Mbytes, locked:    0 /   0

     iteration # 69     ecut=    65.00 Ry     beta= 0.20
     Davidson diagonalization with overlap

---- Real-time Memory Report at c_bands before calling an iterative solver
          1238 MiB given to the printing process from OS
          1039 MiB allocation reported by mallinfo(arena+hblkhd)
         58593 MiB available memory on the node where the printing process lives
     GPU memory used/free/total (MiB): 1578 / 14702 / 16280
------------------
     ethr =  1.10E-07,  avg # of iterations =  4.1

     total cpu time spent up to now is      461.4 secs

     total energy              =    -406.10349096 Ry
     estimated scf accuracy    <       0.00013657 Ry

     total magnetization       =     1.47 Bohr mag/cell
     absolute magnetization    =     2.63 Bohr mag/cell
[tb_dev] Currently allocated     7.03E+00 Mbytes, locked:    0 /  18
[tb_pin] Currently allocated     0.00E+00 Mbytes, locked:    0 /   0

     iteration # 70     ecut=    65.00 Ry     beta= 0.20
     Davidson diagonalization with overlap

---- Real-time Memory Report at c_bands before calling an iterative solver
          1238 MiB given to the printing process from OS
          1039 MiB allocation reported by mallinfo(arena+hblkhd)
         58593 MiB available memory on the node where the printing process lives
     GPU memory used/free/total (MiB): 1578 / 14702 / 16280
------------------
     ethr =  1.10E-07,  avg # of iterations =  5.8

     total cpu time spent up to now is      466.5 secs

     total energy              =    -406.10355477 Ry
     estimated scf accuracy    <       0.00012266 Ry

     total magnetization       =     1.52 Bohr mag/cell
     absolute magnetization    =     2.70 Bohr mag/cell
[tb_dev] Currently allocated     7.03E+00 Mbytes, locked:    0 /  18
[tb_pin] Currently allocated     0.00E+00 Mbytes, locked:    0 /   0

     iteration # 71     ecut=    65.00 Ry     beta= 0.20
     Davidson diagonalization with overlap

---- Real-time Memory Report at c_bands before calling an iterative solver
          1238 MiB given to the printing process from OS
          1039 MiB allocation reported by mallinfo(arena+hblkhd)
         58593 MiB available memory on the node where the printing process lives
     GPU memory used/free/total (MiB): 1578 / 14702 / 16280
------------------
     ethr =  1.10E-07,  avg # of iterations =  1.0

     total cpu time spent up to now is      468.8 secs

     total energy              =    -406.10345004 Ry
     estimated scf accuracy    <       0.00011964 Ry

     total magnetization       =     1.52 Bohr mag/cell
     absolute magnetization    =     2.69 Bohr mag/cell
[tb_dev] Currently allocated     7.03E+00 Mbytes, locked:    0 /  18
[tb_pin] Currently allocated     0.00E+00 Mbytes, locked:    0 /   0

     iteration # 72     ecut=    65.00 Ry     beta= 0.20
     Davidson diagonalization with overlap

---- Real-time Memory Report at c_bands before calling an iterative solver
          1238 MiB given to the printing process from OS
          1039 MiB allocation reported by mallinfo(arena+hblkhd)
         58593 MiB available memory on the node where the printing process lives
     GPU memory used/free/total (MiB): 1578 / 14702 / 16280
------------------
     ethr =  1.10E-07,  avg # of iterations =  6.9

     total cpu time spent up to now is      473.9 secs

     total energy              =    -406.10356708 Ry
     estimated scf accuracy    <       0.00014614 Ry

     total magnetization       =     1.40 Bohr mag/cell
     absolute magnetization    =     2.54 Bohr mag/cell
[tb_dev] Currently allocated     7.03E+00 Mbytes, locked:    0 /  18
[tb_pin] Currently allocated     0.00E+00 Mbytes, locked:    0 /   0

     iteration # 73     ecut=    65.00 Ry     beta= 0.20
     Davidson diagonalization with overlap

---- Real-time Memory Report at c_bands before calling an iterative solver
          1238 MiB given to the printing process from OS
          1039 MiB allocation reported by mallinfo(arena+hblkhd)
         58593 MiB available memory on the node where the printing process lives
     GPU memory used/free/total (MiB): 1578 / 14702 / 16280
------------------
     ethr =  1.10E-07,  avg # of iterations =  6.0

     total cpu time spent up to now is      478.5 secs

     total energy              =    -406.10367810 Ry
     estimated scf accuracy    <       0.00015530 Ry

     total magnetization       =     1.46 Bohr mag/cell
     absolute magnetization    =     2.62 Bohr mag/cell
[tb_dev] Currently allocated     7.03E+00 Mbytes, locked:    0 /  18
[tb_pin] Currently allocated     0.00E+00 Mbytes, locked:    0 /   0

     iteration # 74     ecut=    65.00 Ry     beta= 0.20
     Davidson diagonalization with overlap

---- Real-time Memory Report at c_bands before calling an iterative solver
          1238 MiB given to the printing process from OS
          1039 MiB allocation reported by mallinfo(arena+hblkhd)
         58584 MiB available memory on the node where the printing process lives
     GPU memory used/free/total (MiB): 1578 / 14702 / 16280
------------------
     ethr =  1.10E-07,  avg # of iterations =  2.5

     total cpu time spent up to now is      481.4 secs

     total energy              =    -406.10103834 Ry
     estimated scf accuracy    <       0.00013353 Ry

     total magnetization       =     1.43 Bohr mag/cell
     absolute magnetization    =     2.59 Bohr mag/cell
[tb_dev] Currently allocated     7.03E+00 Mbytes, locked:    0 /  18
[tb_pin] Currently allocated     0.00E+00 Mbytes, locked:    0 /   0

     iteration # 75     ecut=    65.00 Ry     beta= 0.20
     Davidson diagonalization with overlap

---- Real-time Memory Report at c_bands before calling an iterative solver
          1238 MiB given to the printing process from OS
          1039 MiB allocation reported by mallinfo(arena+hblkhd)
         58586 MiB available memory on the node where the printing process lives
     GPU memory used/free/total (MiB): 1578 / 14702 / 16280
------------------
     c_bands:  1 eigenvalues not converged
     c_bands:  1 eigenvalues not converged
     ethr =  1.10E-07,  avg # of iterations = 10.5

     total cpu time spent up to now is      488.7 secs

     total energy              =    -406.09597505 Ry
     estimated scf accuracy    <       0.00021681 Ry

     total magnetization       =     1.76 Bohr mag/cell
     absolute magnetization    =     3.00 Bohr mag/cell
[tb_dev] Currently allocated     7.03E+00 Mbytes, locked:    0 /  18
[tb_pin] Currently allocated     0.00E+00 Mbytes, locked:    0 /   0

     iteration # 76     ecut=    65.00 Ry     beta= 0.20
     Davidson diagonalization with overlap

---- Real-time Memory Report at c_bands before calling an iterative solver
          1238 MiB given to the printing process from OS
          1039 MiB allocation reported by mallinfo(arena+hblkhd)
         58589 MiB available memory on the node where the printing process lives
     GPU memory used/free/total (MiB): 1578 / 14702 / 16280
------------------
     c_bands:  1 eigenvalues not converged
     c_bands:  1 eigenvalues not converged
     c_bands:  1 eigenvalues not converged
     c_bands:  1 eigenvalues not converged
     c_bands:  1 eigenvalues not converged
     c_bands:  1 eigenvalues not converged
     c_bands:  1 eigenvalues not converged
     ethr =  1.10E-07,  avg # of iterations = 12.9

     total cpu time spent up to now is      497.1 secs

     total energy              =    -406.10010510 Ry
     estimated scf accuracy    <       0.00086772 Ry

     total magnetization       =     2.25 Bohr mag/cell
     absolute magnetization    =     3.62 Bohr mag/cell
[tb_dev] Currently allocated     7.03E+00 Mbytes, locked:    0 /  18
[tb_pin] Currently allocated     0.00E+00 Mbytes, locked:    0 /   0

     iteration # 77     ecut=    65.00 Ry     beta= 0.20
     Davidson diagonalization with overlap

---- Real-time Memory Report at c_bands before calling an iterative solver
          1238 MiB given to the printing process from OS
          1039 MiB allocation reported by mallinfo(arena+hblkhd)
         58588 MiB available memory on the node where the printing process lives
     GPU memory used/free/total (MiB): 1578 / 14702 / 16280
------------------
     ethr =  1.10E-07,  avg # of iterations = 11.2

     total cpu time spent up to now is      504.7 secs

     total energy              =    -406.10298362 Ry
     estimated scf accuracy    <       0.00022626 Ry

     total magnetization       =     1.89 Bohr mag/cell
     absolute magnetization    =     3.17 Bohr mag/cell
[tb_dev] Currently allocated     7.03E+00 Mbytes, locked:    0 /  18
[tb_pin] Currently allocated     0.00E+00 Mbytes, locked:    0 /   0

     iteration # 78     ecut=    65.00 Ry     beta= 0.20
     Davidson diagonalization with overlap

---- Real-time Memory Report at c_bands before calling an iterative solver
          1238 MiB given to the printing process from OS
          1039 MiB allocation reported by mallinfo(arena+hblkhd)
         58591 MiB available memory on the node where the printing process lives
     GPU memory used/free/total (MiB): 1578 / 14702 / 16280
------------------
     ethr =  1.10E-07,  avg # of iterations =  5.6

     total cpu time spent up to now is      509.0 secs

     total energy              =    -406.10304230 Ry
     estimated scf accuracy    <       0.00023584 Ry

     total magnetization       =     1.85 Bohr mag/cell
     absolute magnetization    =     3.12 Bohr mag/cell
[tb_dev] Currently allocated     7.03E+00 Mbytes, locked:    0 /  18
[tb_pin] Currently allocated     0.00E+00 Mbytes, locked:    0 /   0

     iteration # 79     ecut=    65.00 Ry     beta= 0.20
     Davidson diagonalization with overlap

---- Real-time Memory Report at c_bands before calling an iterative solver
          1238 MiB given to the printing process from OS
          1039 MiB allocation reported by mallinfo(arena+hblkhd)
         58591 MiB available memory on the node where the printing process lives
     GPU memory used/free/total (MiB): 1578 / 14702 / 16280
------------------
     ethr =  1.10E-07,  avg # of iterations =  1.5

     total cpu time spent up to now is      511.5 secs

     total energy              =    -406.10308830 Ry
     estimated scf accuracy    <       0.00018829 Ry

     total magnetization       =     1.83 Bohr mag/cell
     absolute magnetization    =     3.10 Bohr mag/cell
[tb_dev] Currently allocated     7.03E+00 Mbytes, locked:    0 /  18
[tb_pin] Currently allocated     0.00E+00 Mbytes, locked:    0 /   0

     iteration # 80     ecut=    65.00 Ry     beta= 0.20
     Davidson diagonalization with overlap

---- Real-time Memory Report at c_bands before calling an iterative solver
          1238 MiB given to the printing process from OS
          1039 MiB allocation reported by mallinfo(arena+hblkhd)
         58591 MiB available memory on the node where the printing process lives
     GPU memory used/free/total (MiB): 1578 / 14702 / 16280
------------------
     ethr =  1.10E-07,  avg # of iterations =  5.8

     total cpu time spent up to now is      516.1 secs

     total energy              =    -406.09947827 Ry
     estimated scf accuracy    <       0.00035992 Ry

     total magnetization       =     1.79 Bohr mag/cell
     absolute magnetization    =     3.04 Bohr mag/cell

     End of self-consistent calculation

     convergence NOT achieved after  80 iterations: stopping

     Writing config to output data dir ./out/aiida.save/
 
     init_run     :     10.10s CPU      2.23s WALL (       1 calls)
     electrons    :    626.08s CPU    513.15s WALL (       1 calls)

     Called by init_run:
     wfcinit      :      0.17s CPU      0.17s WALL (       1 calls)
                                        0.17s GPU  (       1 calls)
     potinit      :      0.33s CPU      0.17s WALL (       1 calls)
     hinit0       :      7.25s CPU      1.21s WALL (       1 calls)

     Called by electrons:
     c_bands      :    494.17s CPU    455.41s WALL (      80 calls)
     sum_band     :     32.61s CPU     38.02s WALL (      80 calls)
     v_of_rho     :     32.56s CPU      2.97s WALL (      81 calls)
     v_h          :      4.57s CPU      0.41s WALL (      81 calls)
     v_xc         :     27.98s CPU      2.56s WALL (      81 calls)
     newd         :     34.80s CPU      3.51s WALL (      81 calls)
                                        3.51s GPU  (      81 calls)
     mix_rho      :     19.63s CPU      1.88s WALL (      80 calls)

     Called by c_bands:
     init_us_2    :     25.11s CPU     24.12s WALL (   23040 calls)
     init_us_2:gp :     24.65s CPU     23.73s WALL (   23040 calls)
     cegterg      :    449.73s CPU    390.45s WALL (   11522 calls)

     Called by sum_band:
     sum_band:wei :      0.29s CPU      0.29s WALL (      80 calls)
                                        0.29s GPU  (      80 calls)
     sum_band:loo :     26.42s CPU     31.64s WALL (      80 calls)
                                       31.64s GPU  (      80 calls)
     sum_band:buf :      4.79s CPU      5.66s WALL (   11520 calls)
                                        5.59s GPU  (   11520 calls)
     sum_band:ini :      9.30s CPU     11.75s WALL (   11520 calls)
                                       11.68s GPU  (   11520 calls)
     sum_band:cal :      0.35s CPU      0.94s WALL (   11520 calls)
                                        0.76s GPU  (   11520 calls)
     sum_band:bec :      1.28s CPU      1.63s WALL (   11520 calls)
                                        1.55s GPU  (   11520 calls)
     addusdens    :      4.11s CPU      4.26s WALL (      80 calls)
                                        4.26s GPU  (      80 calls)
     addusd:skk   :      0.01s CPU      0.01s WALL (     160 calls)
                                        0.01s GPU  (     160 calls)

     Called by *egterg:
     cdiaghg      :    207.70s CPU    184.98s WALL (  104175 calls)
                                      184.29s GPU  (  104175 calls)
     cegterg:over :     13.59s CPU     11.93s WALL (   92797 calls)
     cegterg:upda :     22.86s CPU     20.17s WALL (   92797 calls)
     cegterg:last :      5.59s CPU      5.02s WALL (   40543 calls)
     h_psi        :    153.78s CPU    131.06s WALL (  104319 calls)
                                      130.50s GPU  (  104319 calls)
     s_psi        :      8.62s CPU     11.26s WALL (  104319 calls)
                                       10.46s GPU  (  104319 calls)
     g_psi        :      0.78s CPU      1.97s WALL (   92797 calls)
                                        1.38s GPU  (   92797 calls)

     Called by h_psi:
     h_psi:calbec :      4.06s CPU     10.11s WALL (  104319 calls)
                                        9.48s GPU  (  104319 calls)
     vloc_psi     :    116.62s CPU     99.78s WALL (  104319 calls)
                                       99.16s GPU  (  104319 calls)
     add_vuspsi   :     13.39s CPU     14.79s WALL (  104319 calls)
                                       14.18s GPU  (  104319 calls)

     General routines
     calbec       :      3.35s CPU      2.91s WALL (  115839 calls)
     fft          :      2.83s CPU      0.54s WALL (    2023 calls)
                                        0.42s GPU  (    1861 calls)
     ffts         :      0.23s CPU      0.04s WALL (     322 calls)
                                        0.01s GPU  (     160 calls)
     fftw         :      6.76s CPU     62.55s WALL (  287522 calls)
                                       60.95s GPU  (  287522 calls)
     interpolate  :      3.67s CPU      0.33s WALL (     162 calls)
     davcio       :      0.96s CPU      0.37s WALL (     306 calls)
 
     Parallel routines
 
     PWSCF        :  10m40.03s CPU   8m36.39s WALL

 
   This run was terminated on:  18: 1:53  23Oct2023            

=------------------------------------------------------------------------------=
   JOB DONE.
=------------------------------------------------------------------------------=
