
     Program PWSCF v.7.2 starts on 23Oct2023 at 21:52:20 

     This program is part of the open-source Quantum ESPRESSO suite
     for quantum simulation of materials; please cite
         "P. Giannozzi et al., J. Phys.:Condens. Matter 21 395502 (2009);
         "P. Giannozzi et al., J. Phys.:Condens. Matter 29 465901 (2017);
         "P. Giannozzi et al., J. Chem. Phys. 152 154105 (2020);
          URL http://www.quantum-espresso.org", 
     in publications or presentations arising from this work. More details at
     http://www.quantum-espresso.org/quote

     Parallel version (MPI & OpenMP), running on      12 processor cores
     Number of MPI processes:                 1
     Threads/MPI process:                    12

     MPI processes distributed on     1 nodes
     60316 MiB available memory on the printing compute node when the environment starts
 
     Reading input from aiida.in

     Current dimensions of program PWSCF are:
     Max number of different atomic species (ntypx) = 10
     Max number of k-points (npk) =  40000
     Max angular momentum in pseudopotentials (lmaxx) =  4
     file Ba.pbesol-spn-kjpaw_psl.1.0.0.UPF: wavefunction(s)  5S 6S renormalized
     Message from routine setup:
     using ibrav=0 with symmetry is DISCOURAGED, use correct ibrav instead
 
     Subspace diagonalization in iterative solution of the eigenvalue problem:
     a serial algorithm will be used

 
     G-vector sticks info
     --------------------
     sticks:   dense  smooth     PW     G-vecs:    dense   smooth      PW
     Sum        7737    3867   1105               398695   140941   21477
 
     Using Slab Decomposition
 


     bravais-lattice index     =            0
     lattice parameter (alat)  =      14.6575  a.u.
     unit-cell volume          =    2245.4786 (a.u.)^3
     number of atoms/cell      =           12
     number of atomic types    =            2
     number of electrons       =        80.00
     number of Kohn-Sham states=           48
     kinetic-energy cutoff     =      60.0000  Ry
     charge density cutoff     =     480.0000  Ry
     scf convergence threshold =      2.4E-09
     mixing beta               =       0.4000
     number of iterations used =            8  plain     mixing
     Exchange-correlation= PBESOL
                           (   1   4  10   8   0   0   0)

     GPU acceleration is ACTIVE.


     GPU used by master process:

        Device Number: 0
        Device name: Tesla P100-PCIE-16GB
        Compute capability : 60
        Ratio of single to double precision performance  : 2
        Memory Clock Rate (KHz): 715000
        Memory Bus Width (bits): 4096
        Peak Memory Bandwidth (GB/s): 732.16

     celldm(1)=  14.657543  celldm(2)=   0.000000  celldm(3)=   0.000000
     celldm(4)=   0.000000  celldm(5)=   0.000000  celldm(6)=   0.000000

     crystal axes: (cart. coord. in units of alat)
               a(1) = (   0.577005   0.816741   0.000000 )  
               a(2) = (  -0.577005   0.816741   0.000000 )  
               a(3) = (  -0.500743   0.000000   0.756540 )  

     reciprocal axes: (cart. coord. in units 2 pi/alat)
               b(1) = (  0.866544  0.612189  0.573553 )  
               b(2) = ( -0.866544  0.612189 -0.573553 )  
               b(3) = (  0.000000 -0.000000  1.321807 )  


     PseudoPot. # 1 for Ba read from file:
     ./pseudo/Ba.pbesol-spn-kjpaw_psl.1.0.0.UPF
     MD5 check sum: f28c4a63d325c1a0d00fd3a4f19b8d73
     Pseudo is Projector augmented-wave + core cor, Zval = 10.0
     Generated using "atomic" code by A. Dal Corso  v.6.0 svn rev. 13079
     Shape of augmentation charge: PSQ
     Using radial grid of 1251 points,  7 beta functions with: 
                l(1) =   0
                l(2) =   0
                l(3) =   0
                l(4) =   1
                l(5) =   1
                l(6) =   2
                l(7) =   2
     Q(r) pseudized with 0 coefficients 


     PseudoPot. # 2 for N  read from file:
     ./pseudo/N.pbesol-theos.UPF
     MD5 check sum: 1b64827339d390a5a22afef3ff345c9d
     Pseudo is Ultrasoft + core correction, Zval =  5.0
     Generated using "atomic" code by A. Dal Corso  v.5.1
     Using radial grid of 1085 points,  4 beta functions with: 
                l(1) =   0
                l(2) =   0
                l(3) =   1
                l(4) =   1
     Q(r) pseudized with 0 coefficients 


     atomic species   valence    mass     pseudopotential
        Ba            10.00   137.32700     Ba( 1.00)
        N              5.00    14.00670     N ( 1.00)

     Starting magnetic structure 
     atomic species   magnetization
        Ba           0.100
        N            0.100

      2 Sym. Ops. (no inversion) found ( 1 have fractional translation)


                                    s                        frac. trans.

      isym =  1     identity                                     

 cryst.   s( 1) = (     1          0          0      )
                  (     0          1          0      )
                  (     0          0          1      )

 cart.    s( 1) = (  1.0000000 -0.0000000  0.0000000 )
                  ( -0.0000000  1.0000000  0.0000000 )
                  (  0.0000000  0.0000000  1.0000000 )


      isym =  2     inv. 180 deg rotation - cart. axis [0,1,0]   

 cryst.   s( 2) = (     0         -1          0      )    f =(  0.0000000 )
                  (    -1          0          0      )       ( -0.0000000 )
                  (     0          0          1      )       ( -0.5000000 )

 cart.    s( 2) = (  1.0000000  0.0000000  0.0000000 )    f =(  0.2503714 )
                  ( -0.0000000 -1.0000000  0.0000000 )       (  0.0000000 )
                  (  0.0000000  0.0000000  1.0000000 )       ( -0.3782699 )


   Cartesian axes

     site n.     atom                  positions (alat units)
         1           Ba  tau(   1) = (  -0.1447692   1.4573925   0.6783137  )
         2           Ba  tau(   2) = (   0.6826068   0.9928303   0.3000437  )
         3           Ba  tau(   3) = (   0.2281854   1.1217120   0.5636222  )
         4           Ba  tau(   4) = (  -0.0984478   1.3285108   0.1853523  )
         5           N   tau(   5) = (  -0.2503714   1.6241710   0.3782699  )
         6           N   tau(   6) = (   0.5770046   0.8260518  -0.0000000  )
         7           N   tau(   7) = (  -0.1552996   1.1370667   0.4856986  )
         8           N   tau(   8) = (   0.6720764   1.3131560   0.1074287  )
         9           N   tau(   9) = (   0.5612796   1.2443865   0.5537872  )
        10           N   tau(  10) = (   0.2346464   1.2058363   0.1755173  )
        11           N   tau(  11) = (   0.1587204   1.4946359   0.4698113  )
        12           N   tau(  12) = (   0.9860964   0.9555869   0.0915413  )

   Crystallographic axes

     site n.     atom                  positions (cryst. coord.)
         1           Ba  tau(   1) = (  1.1558000  0.6286000  0.8966000  )
         2           Ba  tau(   2) = (  1.3714000 -0.1558000  0.3966000  )
         3           Ba  tau(   3) = (  1.2077000  0.1657000  0.7450000  )
         4           Ba  tau(   4) = (  0.8343000  0.7923000  0.2450000  )
         5           N   tau(   5) = (  0.9943000  0.9943000  0.5000000  )
         6           N   tau(   6) = (  1.0057000  0.0057000  0.0000000  )
         7           N   tau(   7) = (  0.8401000  0.5521000  0.6420000  )
         8           N   tau(   8) = (  1.4479000  0.1599000  0.1420000  )
         9           N   tau(   9) = (  1.5658000 -0.0422000  0.7320000  )
        10           N   tau(  10) = (  1.0422000  0.4342000  0.2320000  )
        11           N   tau(  11) = (  1.3220000  0.5080000  0.6210000  )
        12           N   tau(  12) = (  1.4920000 -0.3220000  0.1210000  )

     number of k points=   116  Marzari-Vanderbilt smearing, width (Ry)=  0.0100
                       cart. coord. in units 2pi/alat
        k(    1) = (   0.0000000   0.0000000   0.0000000), wk =   0.0025510
        k(    2) = (   0.0000000   0.0000000   0.1652259), wk =   0.0051020
        k(    3) = (   0.0000000   0.0000000   0.3304518), wk =   0.0051020
        k(    4) = (   0.0000000   0.0000000   0.4956778), wk =   0.0051020
        k(    5) = (   0.0000000   0.0000000  -0.6609037), wk =   0.0025510
        k(    6) = (  -0.1237920   0.0874556  -0.0819362), wk =   0.0102041
        k(    7) = (  -0.1237920   0.0874556   0.0832898), wk =   0.0102041
        k(    8) = (  -0.1237920   0.0874556   0.2485157), wk =   0.0102041
        k(    9) = (  -0.1237920   0.0874556   0.4137416), wk =   0.0102041
        k(   10) = (  -0.1237920   0.0874556  -0.7428398), wk =   0.0102041
        k(   11) = (  -0.1237920   0.0874556  -0.5776139), wk =   0.0102041
        k(   12) = (  -0.1237920   0.0874556  -0.4123880), wk =   0.0102041
        k(   13) = (  -0.1237920   0.0874556  -0.2471621), wk =   0.0102041
        k(   14) = (  -0.2475841   0.1749112  -0.1638723), wk =   0.0102041
        k(   15) = (  -0.2475841   0.1749112   0.0013536), wk =   0.0102041
        k(   16) = (  -0.2475841   0.1749112   0.1665795), wk =   0.0102041
        k(   17) = (  -0.2475841   0.1749112   0.3318054), wk =   0.0102041
        k(   18) = (  -0.2475841   0.1749112  -0.8247760), wk =   0.0102041
        k(   19) = (  -0.2475841   0.1749112  -0.6595501), wk =   0.0102041
        k(   20) = (  -0.2475841   0.1749112  -0.4943242), wk =   0.0102041
        k(   21) = (  -0.2475841   0.1749112  -0.3290982), wk =   0.0102041
        k(   22) = (  -0.3713761   0.2623668  -0.2458085), wk =   0.0102041
        k(   23) = (  -0.3713761   0.2623668  -0.0805826), wk =   0.0102041
        k(   24) = (  -0.3713761   0.2623668   0.0846434), wk =   0.0102041
        k(   25) = (  -0.3713761   0.2623668   0.2498693), wk =   0.0102041
        k(   26) = (  -0.3713761   0.2623668  -0.9067122), wk =   0.0102041
        k(   27) = (  -0.3713761   0.2623668  -0.7414862), wk =   0.0102041
        k(   28) = (  -0.3713761   0.2623668  -0.5762603), wk =   0.0102041
        k(   29) = (  -0.3713761   0.2623668  -0.4110344), wk =   0.0102041
        k(   30) = (  -0.0000000   0.1749112  -0.0000000), wk =   0.0051020
        k(   31) = (  -0.0000000   0.1749112   0.1652259), wk =   0.0102041
        k(   32) = (  -0.0000000   0.1749112   0.3304518), wk =   0.0102041
        k(   33) = (  -0.0000000   0.1749112   0.4956778), wk =   0.0102041
        k(   34) = (  -0.0000000   0.1749112  -0.6609037), wk =   0.0051020
        k(   35) = (  -0.1237920   0.2623668  -0.0819362), wk =   0.0102041
        k(   36) = (  -0.1237920   0.2623668   0.0832898), wk =   0.0102041
        k(   37) = (  -0.1237920   0.2623668   0.2485157), wk =   0.0102041
        k(   38) = (  -0.1237920   0.2623668   0.4137416), wk =   0.0102041
        k(   39) = (  -0.1237920   0.2623668  -0.7428398), wk =   0.0102041
        k(   40) = (  -0.1237920   0.2623668  -0.5776139), wk =   0.0102041
        k(   41) = (  -0.1237920   0.2623668  -0.4123880), wk =   0.0102041
        k(   42) = (  -0.1237920   0.2623668  -0.2471621), wk =   0.0102041
        k(   43) = (  -0.2475841   0.3498224  -0.1638723), wk =   0.0102041
        k(   44) = (  -0.2475841   0.3498224   0.0013536), wk =   0.0102041
        k(   45) = (  -0.2475841   0.3498224   0.1665795), wk =   0.0102041
        k(   46) = (  -0.2475841   0.3498224   0.3318054), wk =   0.0102041
        k(   47) = (  -0.2475841   0.3498224  -0.8247760), wk =   0.0102041
        k(   48) = (  -0.2475841   0.3498224  -0.6595501), wk =   0.0102041
        k(   49) = (  -0.2475841   0.3498224  -0.4943242), wk =   0.0102041
        k(   50) = (  -0.2475841   0.3498224  -0.3290982), wk =   0.0102041
        k(   51) = (   0.4951681  -0.1749112   0.3277446), wk =   0.0102041
        k(   52) = (   0.4951681  -0.1749112   0.4929706), wk =   0.0102041
        k(   53) = (   0.4951681  -0.1749112   0.6581965), wk =   0.0102041
        k(   54) = (   0.4951681  -0.1749112   0.8234224), wk =   0.0102041
        k(   55) = (   0.4951681  -0.1749112  -0.3331590), wk =   0.0102041
        k(   56) = (   0.4951681  -0.1749112  -0.1679331), wk =   0.0102041
        k(   57) = (   0.4951681  -0.1749112  -0.0027072), wk =   0.0102041
        k(   58) = (   0.4951681  -0.1749112   0.1625187), wk =   0.0102041
        k(   59) = (   0.3713761  -0.0874556   0.2458085), wk =   0.0102041
        k(   60) = (   0.3713761  -0.0874556   0.4110344), wk =   0.0102041
        k(   61) = (   0.3713761  -0.0874556   0.5762603), wk =   0.0102041
        k(   62) = (   0.3713761  -0.0874556   0.7414862), wk =   0.0102041
        k(   63) = (   0.3713761  -0.0874556  -0.4150952), wk =   0.0102041
        k(   64) = (   0.3713761  -0.0874556  -0.2498693), wk =   0.0102041
        k(   65) = (   0.3713761  -0.0874556  -0.0846434), wk =   0.0102041
        k(   66) = (   0.3713761  -0.0874556   0.0805826), wk =   0.0102041
        k(   67) = (   0.2475841  -0.0000000   0.1638723), wk =   0.0051020
        k(   68) = (   0.2475841  -0.0000000   0.3290982), wk =   0.0051020
        k(   69) = (   0.2475841  -0.0000000   0.4943242), wk =   0.0051020
        k(   70) = (   0.2475841  -0.0000000   0.6595501), wk =   0.0051020
        k(   71) = (   0.2475841  -0.0000000  -0.4970314), wk =   0.0051020
        k(   72) = (   0.2475841  -0.0000000  -0.3318054), wk =   0.0051020
        k(   73) = (   0.2475841  -0.0000000  -0.1665795), wk =   0.0051020
        k(   74) = (   0.2475841  -0.0000000  -0.0013536), wk =   0.0051020
        k(   75) = (  -0.0000000   0.3498224  -0.0000000), wk =   0.0051020
        k(   76) = (  -0.0000000   0.3498224   0.1652259), wk =   0.0102041
        k(   77) = (  -0.0000000   0.3498224   0.3304518), wk =   0.0102041
        k(   78) = (  -0.0000000   0.3498224   0.4956778), wk =   0.0102041
        k(   79) = (  -0.0000000   0.3498224  -0.6609037), wk =   0.0051020
        k(   80) = (  -0.1237920   0.4372780  -0.0819362), wk =   0.0102041
        k(   81) = (  -0.1237920   0.4372780   0.0832898), wk =   0.0102041
        k(   82) = (  -0.1237920   0.4372780   0.2485157), wk =   0.0102041
        k(   83) = (  -0.1237920   0.4372780   0.4137416), wk =   0.0102041
        k(   84) = (  -0.1237920   0.4372780  -0.7428398), wk =   0.0102041
        k(   85) = (  -0.1237920   0.4372780  -0.5776139), wk =   0.0102041
        k(   86) = (  -0.1237920   0.4372780  -0.4123880), wk =   0.0102041
        k(   87) = (  -0.1237920   0.4372780  -0.2471621), wk =   0.0102041
        k(   88) = (   0.6189602  -0.0874556   0.4096808), wk =   0.0102041
        k(   89) = (   0.6189602  -0.0874556   0.5749067), wk =   0.0102041
        k(   90) = (   0.6189602  -0.0874556   0.7401326), wk =   0.0102041
        k(   91) = (   0.6189602  -0.0874556   0.9053586), wk =   0.0102041
        k(   92) = (   0.6189602  -0.0874556  -0.2512229), wk =   0.0102041
        k(   93) = (   0.6189602  -0.0874556  -0.0859970), wk =   0.0102041
        k(   94) = (   0.6189602  -0.0874556   0.0792290), wk =   0.0102041
        k(   95) = (   0.6189602  -0.0874556   0.2444549), wk =   0.0102041
        k(   96) = (   0.4951681   0.0000000   0.3277446), wk =   0.0051020
        k(   97) = (   0.4951681   0.0000000   0.4929706), wk =   0.0051020
        k(   98) = (   0.4951681   0.0000000   0.6581965), wk =   0.0051020
        k(   99) = (   0.4951681   0.0000000   0.8234224), wk =   0.0051020
        k(  100) = (   0.4951681   0.0000000  -0.3331590), wk =   0.0051020
        k(  101) = (   0.4951681   0.0000000  -0.1679331), wk =   0.0051020
        k(  102) = (   0.4951681   0.0000000  -0.0027072), wk =   0.0051020
        k(  103) = (   0.4951681   0.0000000   0.1625187), wk =   0.0051020
        k(  104) = (  -0.0000000   0.5247336  -0.0000000), wk =   0.0051020
        k(  105) = (  -0.0000000   0.5247336   0.1652259), wk =   0.0102041
        k(  106) = (  -0.0000000   0.5247336   0.3304518), wk =   0.0102041
        k(  107) = (  -0.0000000   0.5247336   0.4956778), wk =   0.0102041
        k(  108) = (  -0.0000000   0.5247336  -0.6609037), wk =   0.0051020
        k(  109) = (   0.7427522  -0.0000000   0.4916170), wk =   0.0051020
        k(  110) = (   0.7427522  -0.0000000   0.6568429), wk =   0.0051020
        k(  111) = (   0.7427522  -0.0000000   0.8220688), wk =   0.0051020
        k(  112) = (   0.7427522  -0.0000000   0.9872947), wk =   0.0051020
        k(  113) = (   0.7427522  -0.0000000  -0.1692867), wk =   0.0051020
        k(  114) = (   0.7427522  -0.0000000  -0.0040608), wk =   0.0051020
        k(  115) = (   0.7427522  -0.0000000   0.1611651), wk =   0.0051020
        k(  116) = (   0.7427522  -0.0000000   0.3263911), wk =   0.0051020

                       cryst. coord.
        k(    1) = (   0.0000000   0.0000000   0.0000000), wk =   0.0025510
        k(    2) = (   0.0000000   0.0000000   0.1250000), wk =   0.0051020
        k(    3) = (   0.0000000   0.0000000   0.2500000), wk =   0.0051020
        k(    4) = (   0.0000000   0.0000000   0.3750000), wk =   0.0051020
        k(    5) = (   0.0000000   0.0000000  -0.5000000), wk =   0.0025510
        k(    6) = (   0.0000000   0.1428571  -0.0000000), wk =   0.0102041
        k(    7) = (   0.0000000   0.1428571   0.1250000), wk =   0.0102041
        k(    8) = (   0.0000000   0.1428571   0.2500000), wk =   0.0102041
        k(    9) = (   0.0000000   0.1428571   0.3750000), wk =   0.0102041
        k(   10) = (   0.0000000   0.1428571  -0.5000000), wk =   0.0102041
        k(   11) = (   0.0000000   0.1428571  -0.3750000), wk =   0.0102041
        k(   12) = (   0.0000000   0.1428571  -0.2500000), wk =   0.0102041
        k(   13) = (   0.0000000   0.1428571  -0.1250000), wk =   0.0102041
        k(   14) = (   0.0000000   0.2857143  -0.0000000), wk =   0.0102041
        k(   15) = (   0.0000000   0.2857143   0.1250000), wk =   0.0102041
        k(   16) = (   0.0000000   0.2857143   0.2500000), wk =   0.0102041
        k(   17) = (   0.0000000   0.2857143   0.3750000), wk =   0.0102041
        k(   18) = (   0.0000000   0.2857143  -0.5000000), wk =   0.0102041
        k(   19) = (   0.0000000   0.2857143  -0.3750000), wk =   0.0102041
        k(   20) = (   0.0000000   0.2857143  -0.2500000), wk =   0.0102041
        k(   21) = (   0.0000000   0.2857143  -0.1250000), wk =   0.0102041
        k(   22) = (   0.0000000   0.4285714  -0.0000000), wk =   0.0102041
        k(   23) = (   0.0000000   0.4285714   0.1250000), wk =   0.0102041
        k(   24) = (   0.0000000   0.4285714   0.2500000), wk =   0.0102041
        k(   25) = (   0.0000000   0.4285714   0.3750000), wk =   0.0102041
        k(   26) = (   0.0000000   0.4285714  -0.5000000), wk =   0.0102041
        k(   27) = (   0.0000000   0.4285714  -0.3750000), wk =   0.0102041
        k(   28) = (   0.0000000   0.4285714  -0.2500000), wk =   0.0102041
        k(   29) = (   0.0000000   0.4285714  -0.1250000), wk =   0.0102041
        k(   30) = (   0.1428571   0.1428571  -0.0000000), wk =   0.0051020
        k(   31) = (   0.1428571   0.1428571   0.1250000), wk =   0.0102041
        k(   32) = (   0.1428571   0.1428571   0.2500000), wk =   0.0102041
        k(   33) = (   0.1428571   0.1428571   0.3750000), wk =   0.0102041
        k(   34) = (   0.1428571   0.1428571  -0.5000000), wk =   0.0051020
        k(   35) = (   0.1428571   0.2857143  -0.0000000), wk =   0.0102041
        k(   36) = (   0.1428571   0.2857143   0.1250000), wk =   0.0102041
        k(   37) = (   0.1428571   0.2857143   0.2500000), wk =   0.0102041
        k(   38) = (   0.1428571   0.2857143   0.3750000), wk =   0.0102041
        k(   39) = (   0.1428571   0.2857143  -0.5000000), wk =   0.0102041
        k(   40) = (   0.1428571   0.2857143  -0.3750000), wk =   0.0102041
        k(   41) = (   0.1428571   0.2857143  -0.2500000), wk =   0.0102041
        k(   42) = (   0.1428571   0.2857143  -0.1250000), wk =   0.0102041
        k(   43) = (   0.1428571   0.4285714  -0.0000000), wk =   0.0102041
        k(   44) = (   0.1428571   0.4285714   0.1250000), wk =   0.0102041
        k(   45) = (   0.1428571   0.4285714   0.2500000), wk =   0.0102041
        k(   46) = (   0.1428571   0.4285714   0.3750000), wk =   0.0102041
        k(   47) = (   0.1428571   0.4285714  -0.5000000), wk =   0.0102041
        k(   48) = (   0.1428571   0.4285714  -0.3750000), wk =   0.0102041
        k(   49) = (   0.1428571   0.4285714  -0.2500000), wk =   0.0102041
        k(   50) = (   0.1428571   0.4285714  -0.1250000), wk =   0.0102041
        k(   51) = (   0.1428571  -0.4285714   0.0000000), wk =   0.0102041
        k(   52) = (   0.1428571  -0.4285714   0.1250000), wk =   0.0102041
        k(   53) = (   0.1428571  -0.4285714   0.2500000), wk =   0.0102041
        k(   54) = (   0.1428571  -0.4285714   0.3750000), wk =   0.0102041
        k(   55) = (   0.1428571  -0.4285714  -0.5000000), wk =   0.0102041
        k(   56) = (   0.1428571  -0.4285714  -0.3750000), wk =   0.0102041
        k(   57) = (   0.1428571  -0.4285714  -0.2500000), wk =   0.0102041
        k(   58) = (   0.1428571  -0.4285714  -0.1250000), wk =   0.0102041
        k(   59) = (   0.1428571  -0.2857143   0.0000000), wk =   0.0102041
        k(   60) = (   0.1428571  -0.2857143   0.1250000), wk =   0.0102041
        k(   61) = (   0.1428571  -0.2857143   0.2500000), wk =   0.0102041
        k(   62) = (   0.1428571  -0.2857143   0.3750000), wk =   0.0102041
        k(   63) = (   0.1428571  -0.2857143  -0.5000000), wk =   0.0102041
        k(   64) = (   0.1428571  -0.2857143  -0.3750000), wk =   0.0102041
        k(   65) = (   0.1428571  -0.2857143  -0.2500000), wk =   0.0102041
        k(   66) = (   0.1428571  -0.2857143  -0.1250000), wk =   0.0102041
        k(   67) = (   0.1428571  -0.1428571   0.0000000), wk =   0.0051020
        k(   68) = (   0.1428571  -0.1428571   0.1250000), wk =   0.0051020
        k(   69) = (   0.1428571  -0.1428571   0.2500000), wk =   0.0051020
        k(   70) = (   0.1428571  -0.1428571   0.3750000), wk =   0.0051020
        k(   71) = (   0.1428571  -0.1428571  -0.5000000), wk =   0.0051020
        k(   72) = (   0.1428571  -0.1428571  -0.3750000), wk =   0.0051020
        k(   73) = (   0.1428571  -0.1428571  -0.2500000), wk =   0.0051020
        k(   74) = (   0.1428571  -0.1428571  -0.1250000), wk =   0.0051020
        k(   75) = (   0.2857143   0.2857143  -0.0000000), wk =   0.0051020
        k(   76) = (   0.2857143   0.2857143   0.1250000), wk =   0.0102041
        k(   77) = (   0.2857143   0.2857143   0.2500000), wk =   0.0102041
        k(   78) = (   0.2857143   0.2857143   0.3750000), wk =   0.0102041
        k(   79) = (   0.2857143   0.2857143  -0.5000000), wk =   0.0051020
        k(   80) = (   0.2857143   0.4285714  -0.0000000), wk =   0.0102041
        k(   81) = (   0.2857143   0.4285714   0.1250000), wk =   0.0102041
        k(   82) = (   0.2857143   0.4285714   0.2500000), wk =   0.0102041
        k(   83) = (   0.2857143   0.4285714   0.3750000), wk =   0.0102041
        k(   84) = (   0.2857143   0.4285714  -0.5000000), wk =   0.0102041
        k(   85) = (   0.2857143   0.4285714  -0.3750000), wk =   0.0102041
        k(   86) = (   0.2857143   0.4285714  -0.2500000), wk =   0.0102041
        k(   87) = (   0.2857143   0.4285714  -0.1250000), wk =   0.0102041
        k(   88) = (   0.2857143  -0.4285714   0.0000000), wk =   0.0102041
        k(   89) = (   0.2857143  -0.4285714   0.1250000), wk =   0.0102041
        k(   90) = (   0.2857143  -0.4285714   0.2500000), wk =   0.0102041
        k(   91) = (   0.2857143  -0.4285714   0.3750000), wk =   0.0102041
        k(   92) = (   0.2857143  -0.4285714  -0.5000000), wk =   0.0102041
        k(   93) = (   0.2857143  -0.4285714  -0.3750000), wk =   0.0102041
        k(   94) = (   0.2857143  -0.4285714  -0.2500000), wk =   0.0102041
        k(   95) = (   0.2857143  -0.4285714  -0.1250000), wk =   0.0102041
        k(   96) = (   0.2857143  -0.2857143   0.0000000), wk =   0.0051020
        k(   97) = (   0.2857143  -0.2857143   0.1250000), wk =   0.0051020
        k(   98) = (   0.2857143  -0.2857143   0.2500000), wk =   0.0051020
        k(   99) = (   0.2857143  -0.2857143   0.3750000), wk =   0.0051020
        k(  100) = (   0.2857143  -0.2857143  -0.5000000), wk =   0.0051020
        k(  101) = (   0.2857143  -0.2857143  -0.3750000), wk =   0.0051020
        k(  102) = (   0.2857143  -0.2857143  -0.2500000), wk =   0.0051020
        k(  103) = (   0.2857143  -0.2857143  -0.1250000), wk =   0.0051020
        k(  104) = (   0.4285714   0.4285714  -0.0000000), wk =   0.0051020
        k(  105) = (   0.4285714   0.4285714   0.1250000), wk =   0.0102041
        k(  106) = (   0.4285714   0.4285714   0.2500000), wk =   0.0102041
        k(  107) = (   0.4285714   0.4285714   0.3750000), wk =   0.0102041
        k(  108) = (   0.4285714   0.4285714  -0.5000000), wk =   0.0051020
        k(  109) = (   0.4285714  -0.4285714   0.0000000), wk =   0.0051020
        k(  110) = (   0.4285714  -0.4285714   0.1250000), wk =   0.0051020
        k(  111) = (   0.4285714  -0.4285714   0.2500000), wk =   0.0051020
        k(  112) = (   0.4285714  -0.4285714   0.3750000), wk =   0.0051020
        k(  113) = (   0.4285714  -0.4285714  -0.5000000), wk =   0.0051020
        k(  114) = (   0.4285714  -0.4285714  -0.3750000), wk =   0.0051020
        k(  115) = (   0.4285714  -0.4285714  -0.2500000), wk =   0.0051020
        k(  116) = (   0.4285714  -0.4285714  -0.1250000), wk =   0.0051020

     Dense  grid:   398695 G-vectors     FFT dimensions: ( 108, 108,  96)

     Smooth grid:   140941 G-vectors     FFT dimensions: (  75,  75,  72)

     Dynamical RAM for                 wfc:      12.91 MB

     Dynamical RAM for     wfc (w. buffer):    3007.44 MB

     Dynamical RAM for           str. fact:      12.17 MB

     Dynamical RAM for           local pot:       0.00 MB

     Dynamical RAM for          nlocal pot:      37.65 MB

     Dynamical RAM for                qrad:       4.69 MB

     Dynamical RAM for          rho,v,vnew:      87.76 MB

     Dynamical RAM for               rhoin:      29.25 MB

     Dynamical RAM for            rho*nmix:     194.68 MB

     Dynamical RAM for           G-vectors:      23.89 MB

     Dynamical RAM for          h,s,v(r/c):       0.42 MB

     Dynamical RAM for          <psi|beta>:       0.10 MB

     Dynamical RAM for                 psi:      25.81 MB

     Dynamical RAM for                hpsi:      25.81 MB

     Dynamical RAM for                spsi:      25.81 MB

     Dynamical RAM for      wfcinit/wfcrot:      28.03 MB

     Dynamical RAM for           addusdens:    1301.89 MB

     Dynamical RAM for          addusforce:    1387.13 MB

     Dynamical RAM for         addusstress:    1347.52 MB

     Estimated static dynamical RAM per process >       3.20 GB

     Estimated max dynamical RAM per process >       4.74 GB
     Generating pointlists ...
     new r_m :   0.1465 (alat units)  2.1470 (a.u.) for type    1
     new r_m :   0.1465 (alat units)  2.1470 (a.u.) for type    2

     Initial potential from superposition of free atoms

     starting charge      79.9372, renormalised to      80.0000
     Starting wfcs are   52 randomized atomic wfcs
     Checking if some PAW data can be deallocated... 

     total cpu time spent up to now is       19.1 secs

     Self-consistent Calculation
[tb_dev] Currently allocated     2.05E+01 Mbytes, locked:    0 /  15
[tb_pin] Currently allocated     0.00E+00 Mbytes, locked:    0 /   0

     iteration #  1     ecut=    60.00 Ry     beta= 0.40
     Davidson diagonalization with overlap

---- Real-time Memory Report at c_bands before calling an iterative solver
          4396 MiB given to the printing process from OS
          -166 MiB allocation reported by mallinfo(arena+hblkhd)
         54977 MiB available memory on the node where the printing process lives
     GPU memory used/free/total (MiB): 2132 / 14148 / 16280
------------------
     ethr =  1.00E-02,  avg # of iterations =  4.0

     negative rho (up, down):  2.796E+00 1.544E+00

     total cpu time spent up to now is       46.3 secs

     total energy              =   -1877.30298346 Ry
     estimated scf accuracy    <      55.46594036 Ry

     total magnetization       =    11.10 Bohr mag/cell
     absolute magnetization    =    29.66 Bohr mag/cell
[tb_dev] Currently allocated     2.05E+01 Mbytes, locked:    0 /  13
[tb_pin] Currently allocated     0.00E+00 Mbytes, locked:    0 /   0

     iteration #  2     ecut=    60.00 Ry     beta= 0.40
     Davidson diagonalization with overlap

---- Real-time Memory Report at c_bands before calling an iterative solver
          4742 MiB given to the printing process from OS
           -72 MiB allocation reported by mallinfo(arena+hblkhd)
         54876 MiB available memory on the node where the printing process lives
     GPU memory used/free/total (MiB): 4232 / 12048 / 16280
------------------
     ethr =  1.00E-02,  avg # of iterations =  2.0

     negative rho (up, down):  4.187E+00 2.442E+00

     total cpu time spent up to now is       67.8 secs

     total energy              =   -1873.39718841 Ry
     estimated scf accuracy    <      37.62704534 Ry

     total magnetization       =     7.77 Bohr mag/cell
     absolute magnetization    =    20.20 Bohr mag/cell
[tb_dev] Currently allocated     2.05E+01 Mbytes, locked:    0 /  13
[tb_pin] Currently allocated     0.00E+00 Mbytes, locked:    0 /   0

     iteration #  3     ecut=    60.00 Ry     beta= 0.40
     Davidson diagonalization with overlap

---- Real-time Memory Report at c_bands before calling an iterative solver
          4850 MiB given to the printing process from OS
           -47 MiB allocation reported by mallinfo(arena+hblkhd)
         54851 MiB available memory on the node where the printing process lives
     GPU memory used/free/total (MiB): 4288 / 11992 / 16280
------------------
     ethr =  1.00E-02,  avg # of iterations =  4.4

     negative rho (up, down):  5.700E+00 3.478E+00

     total cpu time spent up to now is       95.5 secs

     total energy              =   -1877.52809789 Ry
     estimated scf accuracy    <      37.82949299 Ry

     total magnetization       =     4.41 Bohr mag/cell
     absolute magnetization    =    14.73 Bohr mag/cell
[tb_dev] Currently allocated     2.05E+01 Mbytes, locked:    0 /  13
[tb_pin] Currently allocated     0.00E+00 Mbytes, locked:    0 /   0

     iteration #  4     ecut=    60.00 Ry     beta= 0.40
     Davidson diagonalization with overlap

---- Real-time Memory Report at c_bands before calling an iterative solver
          4956 MiB given to the printing process from OS
           -26 MiB allocation reported by mallinfo(arena+hblkhd)
         54834 MiB available memory on the node where the printing process lives
     GPU memory used/free/total (MiB): 4288 / 11992 / 16280
------------------
     ethr =  1.00E-02,  avg # of iterations =  2.3

     negative rho (up, down):  5.338E+00 3.468E+00

     total cpu time spent up to now is      117.1 secs

     total energy              =   -1876.15505298 Ry
     estimated scf accuracy    <      11.38119229 Ry

     total magnetization       =     6.79 Bohr mag/cell
     absolute magnetization    =    12.99 Bohr mag/cell
[tb_dev] Currently allocated     2.05E+01 Mbytes, locked:    0 /  13
[tb_pin] Currently allocated     0.00E+00 Mbytes, locked:    0 /   0

     iteration #  5     ecut=    60.00 Ry     beta= 0.40
     Davidson diagonalization with overlap

---- Real-time Memory Report at c_bands before calling an iterative solver
          5012 MiB given to the printing process from OS
            -6 MiB allocation reported by mallinfo(arena+hblkhd)
         54811 MiB available memory on the node where the printing process lives
     GPU memory used/free/total (MiB): 4288 / 11992 / 16280
------------------
     ethr =  1.00E-02,  avg # of iterations =  4.0

     negative rho (up, down):  5.490E+00 3.732E+00

     total cpu time spent up to now is      141.8 secs

     total energy              =   -1881.88906138 Ry
     estimated scf accuracy    <      74.43406127 Ry

     total magnetization       =     3.25 Bohr mag/cell
     absolute magnetization    =    15.10 Bohr mag/cell
[tb_dev] Currently allocated     2.05E+01 Mbytes, locked:    0 /  13
[tb_pin] Currently allocated     0.00E+00 Mbytes, locked:    0 /   0

     iteration #  6     ecut=    60.00 Ry     beta= 0.40
     Davidson diagonalization with overlap

---- Real-time Memory Report at c_bands before calling an iterative solver
          5048 MiB given to the printing process from OS
            14 MiB allocation reported by mallinfo(arena+hblkhd)
         54794 MiB available memory on the node where the printing process lives
     GPU memory used/free/total (MiB): 4288 / 11992 / 16280
------------------
     ethr =  1.00E-02,  avg # of iterations =  2.0

     negative rho (up, down):  4.485E+00 2.526E+00

     total cpu time spent up to now is      162.8 secs

     total energy              =   -1878.01079087 Ry
     estimated scf accuracy    <     104.89425478 Ry

     total magnetization       =     4.05 Bohr mag/cell
     absolute magnetization    =    17.90 Bohr mag/cell
[tb_dev] Currently allocated     2.05E+01 Mbytes, locked:    0 /  13
[tb_pin] Currently allocated     0.00E+00 Mbytes, locked:    0 /   0

     iteration #  7     ecut=    60.00 Ry     beta= 0.40
     Davidson diagonalization with overlap

---- Real-time Memory Report at c_bands before calling an iterative solver
          5069 MiB given to the printing process from OS
            35 MiB allocation reported by mallinfo(arena+hblkhd)
         54773 MiB available memory on the node where the printing process lives
     GPU memory used/free/total (MiB): 4288 / 11992 / 16280
------------------
     ethr =  1.00E-02,  avg # of iterations =  2.5

     negative rho (up, down):  4.351E+00 2.362E+00

     total cpu time spent up to now is      185.7 secs

     total energy              =   -1877.68836201 Ry
     estimated scf accuracy    <      33.92884628 Ry

     total magnetization       =     4.18 Bohr mag/cell
     absolute magnetization    =    12.38 Bohr mag/cell
[tb_dev] Currently allocated     2.05E+01 Mbytes, locked:    0 /  13
[tb_pin] Currently allocated     0.00E+00 Mbytes, locked:    0 /   0

     iteration #  8     ecut=    60.00 Ry     beta= 0.40
     Davidson diagonalization with overlap

---- Real-time Memory Report at c_bands before calling an iterative solver
          5085 MiB given to the printing process from OS
            51 MiB allocation reported by mallinfo(arena+hblkhd)
         54756 MiB available memory on the node where the printing process lives
     GPU memory used/free/total (MiB): 4288 / 11992 / 16280
------------------
     ethr =  1.00E-02,  avg # of iterations =  1.5

     negative rho (up, down):  4.015E+00 2.049E+00

     total cpu time spent up to now is      205.6 secs

     total energy              =   -1877.88861578 Ry
     estimated scf accuracy    <      25.30623997 Ry

     total magnetization       =     4.01 Bohr mag/cell
     absolute magnetization    =     8.27 Bohr mag/cell
[tb_dev] Currently allocated     2.05E+01 Mbytes, locked:    0 /  13
[tb_pin] Currently allocated     0.00E+00 Mbytes, locked:    0 /   0

     iteration #  9     ecut=    60.00 Ry     beta= 0.40
     Davidson diagonalization with overlap

---- Real-time Memory Report at c_bands before calling an iterative solver
          5101 MiB given to the printing process from OS
            67 MiB allocation reported by mallinfo(arena+hblkhd)
         54743 MiB available memory on the node where the printing process lives
     GPU memory used/free/total (MiB): 4288 / 11992 / 16280
------------------
     ethr =  1.00E-02,  avg # of iterations =  1.1

     negative rho (up, down):  3.878E+00 1.848E+00

     total cpu time spent up to now is      225.4 secs

     total energy              =   -1877.99303593 Ry
     estimated scf accuracy    <      10.81171417 Ry

     total magnetization       =     9.56 Bohr mag/cell
     absolute magnetization    =    18.24 Bohr mag/cell
[tb_dev] Currently allocated     2.05E+01 Mbytes, locked:    0 /  13
[tb_pin] Currently allocated     0.00E+00 Mbytes, locked:    0 /   0

     iteration # 10     ecut=    60.00 Ry     beta= 0.40
     Davidson diagonalization with overlap

---- Real-time Memory Report at c_bands before calling an iterative solver
          5118 MiB given to the printing process from OS
            84 MiB allocation reported by mallinfo(arena+hblkhd)
         54726 MiB available memory on the node where the printing process lives
     GPU memory used/free/total (MiB): 4288 / 11992 / 16280
------------------
     ethr =  1.00E-02,  avg # of iterations =  1.0

     negative rho (up, down):  3.935E+00 1.818E+00

     total cpu time spent up to now is      244.8 secs

     total energy              =   -1877.60077001 Ry
     estimated scf accuracy    <       9.39611166 Ry

     total magnetization       =     8.31 Bohr mag/cell
     absolute magnetization    =    15.82 Bohr mag/cell
[tb_dev] Currently allocated     2.05E+01 Mbytes, locked:    0 /  13
[tb_pin] Currently allocated     0.00E+00 Mbytes, locked:    0 /   0

     iteration # 11     ecut=    60.00 Ry     beta= 0.40
     Davidson diagonalization with overlap

---- Real-time Memory Report at c_bands before calling an iterative solver
          5124 MiB given to the printing process from OS
            91 MiB allocation reported by mallinfo(arena+hblkhd)
         54714 MiB available memory on the node where the printing process lives
     GPU memory used/free/total (MiB): 4288 / 11992 / 16280
------------------
     ethr =  1.00E-02,  avg # of iterations =  1.5

     negative rho (up, down):  3.729E+00 1.739E+00

     total cpu time spent up to now is      264.7 secs

     total energy              =   -1877.99770794 Ry
     estimated scf accuracy    <       7.46698967 Ry

     total magnetization       =    11.36 Bohr mag/cell
     absolute magnetization    =    17.38 Bohr mag/cell
[tb_dev] Currently allocated     2.05E+01 Mbytes, locked:    0 /  13
[tb_pin] Currently allocated     0.00E+00 Mbytes, locked:    0 /   0

     iteration # 12     ecut=    60.00 Ry     beta= 0.40
     Davidson diagonalization with overlap

---- Real-time Memory Report at c_bands before calling an iterative solver
          5137 MiB given to the printing process from OS
            99 MiB allocation reported by mallinfo(arena+hblkhd)
         54709 MiB available memory on the node where the printing process lives
     GPU memory used/free/total (MiB): 4288 / 11992 / 16280
------------------
     ethr =  9.33E-03,  avg # of iterations =  1.5

     negative rho (up, down):  3.720E+00 1.799E+00

     total cpu time spent up to now is      284.8 secs

     total energy              =   -1878.20301491 Ry
     estimated scf accuracy    <       3.34304148 Ry

     total magnetization       =    12.15 Bohr mag/cell
     absolute magnetization    =    17.48 Bohr mag/cell
[tb_dev] Currently allocated     2.05E+01 Mbytes, locked:    0 /  13
[tb_pin] Currently allocated     0.00E+00 Mbytes, locked:    0 /   0

     iteration # 13     ecut=    60.00 Ry     beta= 0.40
     Davidson diagonalization with overlap

---- Real-time Memory Report at c_bands before calling an iterative solver
          5144 MiB given to the printing process from OS
           107 MiB allocation reported by mallinfo(arena+hblkhd)
         54701 MiB available memory on the node where the printing process lives
     GPU memory used/free/total (MiB): 4288 / 11992 / 16280
------------------
     ethr =  4.18E-03,  avg # of iterations =  1.0

     negative rho (up, down):  3.742E+00 1.767E+00

     total cpu time spent up to now is      303.9 secs

     total energy              =   -1878.30739919 Ry
     estimated scf accuracy    <       2.46572038 Ry

     total magnetization       =    13.55 Bohr mag/cell
     absolute magnetization    =    19.26 Bohr mag/cell
[tb_dev] Currently allocated     2.05E+01 Mbytes, locked:    0 /  13
[tb_pin] Currently allocated     0.00E+00 Mbytes, locked:    0 /   0

     iteration # 14     ecut=    60.00 Ry     beta= 0.40
     Davidson diagonalization with overlap

---- Real-time Memory Report at c_bands before calling an iterative solver
          5152 MiB given to the printing process from OS
           114 MiB allocation reported by mallinfo(arena+hblkhd)
         54694 MiB available memory on the node where the printing process lives
     GPU memory used/free/total (MiB): 4288 / 11992 / 16280
------------------
     ethr =  3.08E-03,  avg # of iterations =  1.0

     negative rho (up, down):  3.680E+00 1.760E+00

     total cpu time spent up to now is      323.1 secs

     total energy              =   -1878.31485195 Ry
     estimated scf accuracy    <       4.40505057 Ry

     total magnetization       =    13.34 Bohr mag/cell
     absolute magnetization    =    20.37 Bohr mag/cell
[tb_dev] Currently allocated     2.05E+01 Mbytes, locked:    0 /  13
[tb_pin] Currently allocated     0.00E+00 Mbytes, locked:    0 /   0

     iteration # 15     ecut=    60.00 Ry     beta= 0.40
     Davidson diagonalization with overlap

---- Real-time Memory Report at c_bands before calling an iterative solver
          5160 MiB given to the printing process from OS
           123 MiB allocation reported by mallinfo(arena+hblkhd)
         54685 MiB available memory on the node where the printing process lives
     GPU memory used/free/total (MiB): 4288 / 11992 / 16280
------------------
     ethr =  3.08E-03,  avg # of iterations =  1.0

     negative rho (up, down):  3.637E+00 1.996E+00

     total cpu time spent up to now is      342.3 secs

     total energy              =   -1878.26052161 Ry
     estimated scf accuracy    <       4.92309205 Ry

     total magnetization       =    14.17 Bohr mag/cell
     absolute magnetization    =    21.43 Bohr mag/cell
[tb_dev] Currently allocated     2.05E+01 Mbytes, locked:    0 /  13
[tb_pin] Currently allocated     0.00E+00 Mbytes, locked:    0 /   0

     iteration # 16     ecut=    60.00 Ry     beta= 0.40
     Davidson diagonalization with overlap

---- Real-time Memory Report at c_bands before calling an iterative solver
          5169 MiB given to the printing process from OS
           131 MiB allocation reported by mallinfo(arena+hblkhd)
         54677 MiB available memory on the node where the printing process lives
     GPU memory used/free/total (MiB): 4288 / 11992 / 16280
------------------
     ethr =  3.08E-03,  avg # of iterations =  1.8

     negative rho (up, down):  3.545E+00 1.895E+00

     total cpu time spent up to now is      363.1 secs

     total energy              =   -1878.27111376 Ry
     estimated scf accuracy    <       4.82351642 Ry

     total magnetization       =    14.91 Bohr mag/cell
     absolute magnetization    =    21.76 Bohr mag/cell
[tb_dev] Currently allocated     2.05E+01 Mbytes, locked:    0 /  13
[tb_pin] Currently allocated     0.00E+00 Mbytes, locked:    0 /   0

     iteration # 17     ecut=    60.00 Ry     beta= 0.40
     Davidson diagonalization with overlap

---- Real-time Memory Report at c_bands before calling an iterative solver
          5177 MiB given to the printing process from OS
           140 MiB allocation reported by mallinfo(arena+hblkhd)
         54668 MiB available memory on the node where the printing process lives
     GPU memory used/free/total (MiB): 4288 / 11992 / 16280
------------------
     ethr =  3.08E-03,  avg # of iterations =  2.5

     negative rho (up, down):  3.609E+00 1.917E+00

     total cpu time spent up to now is      385.1 secs

     total energy              =   -1877.80397449 Ry
     estimated scf accuracy    <      17.86066211 Ry

     total magnetization       =     5.95 Bohr mag/cell
     absolute magnetization    =    14.43 Bohr mag/cell
[tb_dev] Currently allocated     2.05E+01 Mbytes, locked:    0 /  13
[tb_pin] Currently allocated     0.00E+00 Mbytes, locked:    0 /   0

     iteration # 18     ecut=    60.00 Ry     beta= 0.40
     Davidson diagonalization with overlap

---- Real-time Memory Report at c_bands before calling an iterative solver
          5186 MiB given to the printing process from OS
           148 MiB allocation reported by mallinfo(arena+hblkhd)
         54658 MiB available memory on the node where the printing process lives
     GPU memory used/free/total (MiB): 4288 / 11992 / 16280
------------------
     ethr =  3.08E-03,  avg # of iterations =  1.8

     negative rho (up, down):  3.623E+00 1.995E+00

     total cpu time spent up to now is      405.7 secs

     total energy              =   -1878.28919405 Ry
     estimated scf accuracy    <       3.09230510 Ry

     total magnetization       =    16.24 Bohr mag/cell
     absolute magnetization    =    22.83 Bohr mag/cell
[tb_dev] Currently allocated     2.05E+01 Mbytes, locked:    0 /  13
[tb_pin] Currently allocated     0.00E+00 Mbytes, locked:    0 /   0

     iteration # 19     ecut=    60.00 Ry     beta= 0.40
     Davidson diagonalization with overlap

---- Real-time Memory Report at c_bands before calling an iterative solver
          5194 MiB given to the printing process from OS
           157 MiB allocation reported by mallinfo(arena+hblkhd)
         54653 MiB available memory on the node where the printing process lives
     GPU memory used/free/total (MiB): 4288 / 11992 / 16280
------------------
     ethr =  3.08E-03,  avg # of iterations =  1.1

     negative rho (up, down):  3.646E+00 2.016E+00

     total cpu time spent up to now is      425.0 secs

     total energy              =   -1878.32234188 Ry
     estimated scf accuracy    <       2.26468100 Ry

     total magnetization       =    14.99 Bohr mag/cell
     absolute magnetization    =    20.95 Bohr mag/cell
[tb_dev] Currently allocated     2.05E+01 Mbytes, locked:    0 /  13
[tb_pin] Currently allocated     0.00E+00 Mbytes, locked:    0 /   0

     iteration # 20     ecut=    60.00 Ry     beta= 0.40
     Davidson diagonalization with overlap

---- Real-time Memory Report at c_bands before calling an iterative solver
          5203 MiB given to the printing process from OS
           165 MiB allocation reported by mallinfo(arena+hblkhd)
         54636 MiB available memory on the node where the printing process lives
     GPU memory used/free/total (MiB): 4288 / 11992 / 16280
------------------
     ethr =  2.83E-03,  avg # of iterations =  1.0

     negative rho (up, down):  3.598E+00 1.981E+00

     total cpu time spent up to now is      444.2 secs

     total energy              =   -1878.39192783 Ry
     estimated scf accuracy    <       2.37108469 Ry

     total magnetization       =    15.61 Bohr mag/cell
     absolute magnetization    =    21.59 Bohr mag/cell
[tb_dev] Currently allocated     2.05E+01 Mbytes, locked:    0 /  13
[tb_pin] Currently allocated     0.00E+00 Mbytes, locked:    0 /   0

     iteration # 21     ecut=    60.00 Ry     beta= 0.40
     Davidson diagonalization with overlap

---- Real-time Memory Report at c_bands before calling an iterative solver
          5211 MiB given to the printing process from OS
           173 MiB allocation reported by mallinfo(arena+hblkhd)
         54629 MiB available memory on the node where the printing process lives
     GPU memory used/free/total (MiB): 4288 / 11992 / 16280
------------------
     ethr =  2.83E-03,  avg # of iterations =  1.0

     negative rho (up, down):  3.654E+00 2.023E+00

     total cpu time spent up to now is      463.5 secs

     total energy              =   -1878.28668212 Ry
     estimated scf accuracy    <       4.74906966 Ry

     total magnetization       =    15.43 Bohr mag/cell
     absolute magnetization    =    21.19 Bohr mag/cell
[tb_dev] Currently allocated     2.05E+01 Mbytes, locked:    0 /  13
[tb_pin] Currently allocated     0.00E+00 Mbytes, locked:    0 /   0

     iteration # 22     ecut=    60.00 Ry     beta= 0.40
     Davidson diagonalization with overlap

---- Real-time Memory Report at c_bands before calling an iterative solver
          5220 MiB given to the printing process from OS
           182 MiB allocation reported by mallinfo(arena+hblkhd)
         54626 MiB available memory on the node where the printing process lives
     GPU memory used/free/total (MiB): 4288 / 11992 / 16280
------------------
     ethr =  2.83E-03,  avg # of iterations =  1.3

     negative rho (up, down):  3.910E+00 2.111E+00

     total cpu time spent up to now is      483.1 secs

     total energy              =   -1878.35937905 Ry
     estimated scf accuracy    <       3.67078169 Ry

     total magnetization       =    14.57 Bohr mag/cell
     absolute magnetization    =    21.25 Bohr mag/cell
[tb_dev] Currently allocated     2.05E+01 Mbytes, locked:    0 /  13
[tb_pin] Currently allocated     0.00E+00 Mbytes, locked:    0 /   0

     iteration # 23     ecut=    60.00 Ry     beta= 0.40
     Davidson diagonalization with overlap

---- Real-time Memory Report at c_bands before calling an iterative solver
          5232 MiB given to the printing process from OS
           190 MiB allocation reported by mallinfo(arena+hblkhd)
         54615 MiB available memory on the node where the printing process lives
     GPU memory used/free/total (MiB): 4288 / 11992 / 16280
------------------
     ethr =  2.83E-03,  avg # of iterations =  2.2

     negative rho (up, down):  3.525E+00 2.015E+00

     total cpu time spent up to now is      504.5 secs

     total energy              =   -1878.15371881 Ry
     estimated scf accuracy    <       9.10747094 Ry

     total magnetization       =    14.55 Bohr mag/cell
     absolute magnetization    =    21.33 Bohr mag/cell
[tb_dev] Currently allocated     2.05E+01 Mbytes, locked:    0 /  13
[tb_pin] Currently allocated     0.00E+00 Mbytes, locked:    0 /   0

     iteration # 24     ecut=    60.00 Ry     beta= 0.40
     Davidson diagonalization with overlap

---- Real-time Memory Report at c_bands before calling an iterative solver
          5241 MiB given to the printing process from OS
           199 MiB allocation reported by mallinfo(arena+hblkhd)
         54609 MiB available memory on the node where the printing process lives
     GPU memory used/free/total (MiB): 4288 / 11992 / 16280
------------------
     ethr =  2.83E-03,  avg # of iterations =  2.4

     negative rho (up, down):  3.690E+00 2.221E+00

     total cpu time spent up to now is      526.4 secs

     total energy              =   -1878.51289662 Ry
     estimated scf accuracy    <       4.07967581 Ry

     total magnetization       =    15.42 Bohr mag/cell
     absolute magnetization    =    21.51 Bohr mag/cell
[tb_dev] Currently allocated     2.05E+01 Mbytes, locked:    0 /  13
[tb_pin] Currently allocated     0.00E+00 Mbytes, locked:    0 /   0

     iteration # 25     ecut=    60.00 Ry     beta= 0.40
     Davidson diagonalization with overlap

---- Real-time Memory Report at c_bands before calling an iterative solver
          5249 MiB given to the printing process from OS
           207 MiB allocation reported by mallinfo(arena+hblkhd)
         54602 MiB available memory on the node where the printing process lives
     GPU memory used/free/total (MiB): 4288 / 11992 / 16280
------------------
     ethr =  2.83E-03,  avg # of iterations =  1.5

     negative rho (up, down):  3.632E+00 2.381E+00

     total cpu time spent up to now is      546.4 secs

     total energy              =   -1878.30020627 Ry
     estimated scf accuracy    <       8.75700694 Ry

     total magnetization       =    11.44 Bohr mag/cell
     absolute magnetization    =    18.21 Bohr mag/cell
[tb_dev] Currently allocated     2.05E+01 Mbytes, locked:    0 /  13
[tb_pin] Currently allocated     0.00E+00 Mbytes, locked:    0 /   0

     iteration # 26     ecut=    60.00 Ry     beta= 0.40
     Davidson diagonalization with overlap

---- Real-time Memory Report at c_bands before calling an iterative solver
          5258 MiB given to the printing process from OS
           215 MiB allocation reported by mallinfo(arena+hblkhd)
         54587 MiB available memory on the node where the printing process lives
     GPU memory used/free/total (MiB): 4288 / 11992 / 16280
------------------
     ethr =  2.83E-03,  avg # of iterations =  1.2

     negative rho (up, down):  3.642E+00 2.301E+00

     total cpu time spent up to now is      566.1 secs

     total energy              =   -1878.48659351 Ry
     estimated scf accuracy    <       4.95789029 Ry

     total magnetization       =    16.00 Bohr mag/cell
     absolute magnetization    =    21.74 Bohr mag/cell
[tb_dev] Currently allocated     2.05E+01 Mbytes, locked:    0 /  13
[tb_pin] Currently allocated     0.00E+00 Mbytes, locked:    0 /   0

     iteration # 27     ecut=    60.00 Ry     beta= 0.40
     Davidson diagonalization with overlap

---- Real-time Memory Report at c_bands before calling an iterative solver
          5266 MiB given to the printing process from OS
           224 MiB allocation reported by mallinfo(arena+hblkhd)
         54582 MiB available memory on the node where the printing process lives
     GPU memory used/free/total (MiB): 4288 / 11992 / 16280
------------------
     ethr =  2.83E-03,  avg # of iterations =  1.0

     negative rho (up, down):  3.612E+00 2.305E+00

     total cpu time spent up to now is      585.4 secs

     total energy              =   -1878.59609799 Ry
     estimated scf accuracy    <       5.67015494 Ry

     total magnetization       =    16.00 Bohr mag/cell
     absolute magnetization    =    22.09 Bohr mag/cell
[tb_dev] Currently allocated     2.05E+01 Mbytes, locked:    0 /  13
[tb_pin] Currently allocated     0.00E+00 Mbytes, locked:    0 /   0

     iteration # 28     ecut=    60.00 Ry     beta= 0.40
     Davidson diagonalization with overlap

---- Real-time Memory Report at c_bands before calling an iterative solver
          5275 MiB given to the printing process from OS
           232 MiB allocation reported by mallinfo(arena+hblkhd)
         54574 MiB available memory on the node where the printing process lives
     GPU memory used/free/total (MiB): 4288 / 11992 / 16280
------------------
     ethr =  2.83E-03,  avg # of iterations =  1.0

     negative rho (up, down):  3.630E+00 2.292E+00

     total cpu time spent up to now is      604.6 secs

     total energy              =   -1878.65317198 Ry
     estimated scf accuracy    <       9.52110987 Ry

     total magnetization       =    15.00 Bohr mag/cell
     absolute magnetization    =    21.57 Bohr mag/cell
[tb_dev] Currently allocated     2.05E+01 Mbytes, locked:    0 /  13
[tb_pin] Currently allocated     0.00E+00 Mbytes, locked:    0 /   0

     iteration # 29     ecut=    60.00 Ry     beta= 0.40
     Davidson diagonalization with overlap

---- Real-time Memory Report at c_bands before calling an iterative solver
          5283 MiB given to the printing process from OS
           241 MiB allocation reported by mallinfo(arena+hblkhd)
         54564 MiB available memory on the node where the printing process lives
     GPU memory used/free/total (MiB): 4288 / 11992 / 16280
------------------
     ethr =  2.83E-03,  avg # of iterations =  1.0

     negative rho (up, down):  3.617E+00 2.251E+00

     total cpu time spent up to now is      624.0 secs

     total energy              =   -1878.67493314 Ry
     estimated scf accuracy    <       9.25197250 Ry

     total magnetization       =    15.37 Bohr mag/cell
     absolute magnetization    =    21.56 Bohr mag/cell
[tb_dev] Currently allocated     2.05E+01 Mbytes, locked:    0 /  13
[tb_pin] Currently allocated     0.00E+00 Mbytes, locked:    0 /   0

     iteration # 30     ecut=    60.00 Ry     beta= 0.40
     Davidson diagonalization with overlap

---- Real-time Memory Report at c_bands before calling an iterative solver
          5292 MiB given to the printing process from OS
           249 MiB allocation reported by mallinfo(arena+hblkhd)
         54557 MiB available memory on the node where the printing process lives
     GPU memory used/free/total (MiB): 4288 / 11992 / 16280
------------------
     ethr =  2.83E-03,  avg # of iterations =  1.5

     negative rho (up, down):  3.947E+00 2.208E+00

     total cpu time spent up to now is      644.2 secs

     total energy              =   -1877.72742782 Ry
     estimated scf accuracy    <      11.04772938 Ry

     total magnetization       =    11.36 Bohr mag/cell
     absolute magnetization    =    16.10 Bohr mag/cell
[tb_dev] Currently allocated     2.05E+01 Mbytes, locked:    0 /  13
[tb_pin] Currently allocated     0.00E+00 Mbytes, locked:    0 /   0

     iteration # 31     ecut=    60.00 Ry     beta= 0.40
     Davidson diagonalization with overlap

---- Real-time Memory Report at c_bands before calling an iterative solver
          5300 MiB given to the printing process from OS
           258 MiB allocation reported by mallinfo(arena+hblkhd)
         54546 MiB available memory on the node where the printing process lives
     GPU memory used/free/total (MiB): 4288 / 11992 / 16280
------------------
     ethr =  2.83E-03,  avg # of iterations =  2.2

     negative rho (up, down):  3.916E+00 2.255E+00

     total cpu time spent up to now is      665.7 secs

     total energy              =   -1878.28361545 Ry
     estimated scf accuracy    <      12.92438165 Ry

     total magnetization       =    10.34 Bohr mag/cell
     absolute magnetization    =    14.76 Bohr mag/cell
[tb_dev] Currently allocated     2.05E+01 Mbytes, locked:    0 /  13
[tb_pin] Currently allocated     0.00E+00 Mbytes, locked:    0 /   0

     iteration # 32     ecut=    60.00 Ry     beta= 0.40
     Davidson diagonalization with overlap

---- Real-time Memory Report at c_bands before calling an iterative solver
          5309 MiB given to the printing process from OS
           266 MiB allocation reported by mallinfo(arena+hblkhd)
         54541 MiB available memory on the node where the printing process lives
     GPU memory used/free/total (MiB): 4288 / 11992 / 16280
------------------
     ethr =  2.83E-03,  avg # of iterations =  1.5

     negative rho (up, down):  4.011E+00 2.377E+00

     total cpu time spent up to now is      685.9 secs

     total energy              =   -1878.50419440 Ry
     estimated scf accuracy    <       5.08885146 Ry

     total magnetization       =    15.33 Bohr mag/cell
     absolute magnetization    =    21.04 Bohr mag/cell
[tb_dev] Currently allocated     2.05E+01 Mbytes, locked:    0 /  13
[tb_pin] Currently allocated     0.00E+00 Mbytes, locked:    0 /   0

     iteration # 33     ecut=    60.00 Ry     beta= 0.40
     Davidson diagonalization with overlap

---- Real-time Memory Report at c_bands before calling an iterative solver
          5317 MiB given to the printing process from OS
           274 MiB allocation reported by mallinfo(arena+hblkhd)
         54532 MiB available memory on the node where the printing process lives
     GPU memory used/free/total (MiB): 4288 / 11992 / 16280
------------------
     ethr =  2.83E-03,  avg # of iterations =  1.5

     negative rho (up, down):  4.176E+00 2.784E+00

     total cpu time spent up to now is      706.1 secs

     total energy              =   -1878.36742325 Ry
     estimated scf accuracy    <       6.89715685 Ry

     total magnetization       =    12.43 Bohr mag/cell
     absolute magnetization    =    15.98 Bohr mag/cell
[tb_dev] Currently allocated     2.05E+01 Mbytes, locked:    0 /  13
[tb_pin] Currently allocated     0.00E+00 Mbytes, locked:    0 /   0

     iteration # 34     ecut=    60.00 Ry     beta= 0.40
     Davidson diagonalization with overlap

---- Real-time Memory Report at c_bands before calling an iterative solver
          5325 MiB given to the printing process from OS
           283 MiB allocation reported by mallinfo(arena+hblkhd)
         54522 MiB available memory on the node where the printing process lives
     GPU memory used/free/total (MiB): 4288 / 11992 / 16280
------------------
     ethr =  2.83E-03,  avg # of iterations =  4.5

     negative rho (up, down):  3.923E+00 2.406E+00

     total cpu time spent up to now is      731.3 secs

     total energy              =   -1878.45584290 Ry
     estimated scf accuracy    <      29.11360829 Ry

     total magnetization       =    13.02 Bohr mag/cell
     absolute magnetization    =    19.98 Bohr mag/cell
[tb_dev] Currently allocated     2.05E+01 Mbytes, locked:    0 /  13
[tb_pin] Currently allocated     0.00E+00 Mbytes, locked:    0 /   0

     iteration # 35     ecut=    60.00 Ry     beta= 0.40
     Davidson diagonalization with overlap

---- Real-time Memory Report at c_bands before calling an iterative solver
          5334 MiB given to the printing process from OS
           291 MiB allocation reported by mallinfo(arena+hblkhd)
         54516 MiB available memory on the node where the printing process lives
     GPU memory used/free/total (MiB): 4288 / 11992 / 16280
------------------
     ethr =  2.83E-03,  avg # of iterations =  3.4

     negative rho (up, down):  3.930E+00 2.338E+00

     total cpu time spent up to now is      754.6 secs

     total energy              =   -1878.41756590 Ry
     estimated scf accuracy    <      13.93534796 Ry

     total magnetization       =    16.29 Bohr mag/cell
     absolute magnetization    =    20.97 Bohr mag/cell
[tb_dev] Currently allocated     2.05E+01 Mbytes, locked:    0 /  13
[tb_pin] Currently allocated     0.00E+00 Mbytes, locked:    0 /   0

     iteration # 36     ecut=    60.00 Ry     beta= 0.40
     Davidson diagonalization with overlap

---- Real-time Memory Report at c_bands before calling an iterative solver
          5342 MiB given to the printing process from OS
           300 MiB allocation reported by mallinfo(arena+hblkhd)
         54509 MiB available memory on the node where the printing process lives
     GPU memory used/free/total (MiB): 4288 / 11992 / 16280
------------------
     ethr =  2.83E-03,  avg # of iterations =  1.5

     negative rho (up, down):  3.800E+00 2.334E+00

     total cpu time spent up to now is      774.4 secs

     total energy              =   -1878.53124181 Ry
     estimated scf accuracy    <      10.65597639 Ry

     total magnetization       =    16.05 Bohr mag/cell
     absolute magnetization    =    21.75 Bohr mag/cell
[tb_dev] Currently allocated     2.05E+01 Mbytes, locked:    0 /  13
[tb_pin] Currently allocated     0.00E+00 Mbytes, locked:    0 /   0

     iteration # 37     ecut=    60.00 Ry     beta= 0.40
     Davidson diagonalization with overlap

---- Real-time Memory Report at c_bands before calling an iterative solver
          5350 MiB given to the printing process from OS
           308 MiB allocation reported by mallinfo(arena+hblkhd)
         54487 MiB available memory on the node where the printing process lives
     GPU memory used/free/total (MiB): 4288 / 11992 / 16280
------------------
     ethr =  2.83E-03,  avg # of iterations =  1.6

     negative rho (up, down):  3.843E+00 2.071E+00

     total cpu time spent up to now is      794.9 secs

     total energy              =   -1878.12372192 Ry
     estimated scf accuracy    <      12.74302596 Ry

     total magnetization       =    12.67 Bohr mag/cell
     absolute magnetization    =    20.28 Bohr mag/cell
[tb_dev] Currently allocated     2.05E+01 Mbytes, locked:    0 /  13
[tb_pin] Currently allocated     0.00E+00 Mbytes, locked:    0 /   0

     iteration # 38     ecut=    60.00 Ry     beta= 0.40
     Davidson diagonalization with overlap

---- Real-time Memory Report at c_bands before calling an iterative solver
          5363 MiB given to the printing process from OS
           317 MiB allocation reported by mallinfo(arena+hblkhd)
         54482 MiB available memory on the node where the printing process lives
     GPU memory used/free/total (MiB): 4288 / 11992 / 16280
------------------
     ethr =  2.83E-03,  avg # of iterations =  3.0

     negative rho (up, down):  3.798E+00 1.892E+00

     total cpu time spent up to now is      817.6 secs

     total energy              =   -1878.30949036 Ry
     estimated scf accuracy    <       7.03873811 Ry

     total magnetization       =    15.95 Bohr mag/cell
     absolute magnetization    =    22.30 Bohr mag/cell
[tb_dev] Currently allocated     2.05E+01 Mbytes, locked:    0 /  13
[tb_pin] Currently allocated     0.00E+00 Mbytes, locked:    0 /   0

     iteration # 39     ecut=    60.00 Ry     beta= 0.40
     Davidson diagonalization with overlap

---- Real-time Memory Report at c_bands before calling an iterative solver
          5371 MiB given to the printing process from OS
           325 MiB allocation reported by mallinfo(arena+hblkhd)
         54470 MiB available memory on the node where the printing process lives
     GPU memory used/free/total (MiB): 4288 / 11992 / 16280
------------------
     ethr =  2.83E-03,  avg # of iterations =  2.5

     negative rho (up, down):  3.773E+00 2.020E+00

     total cpu time spent up to now is      839.1 secs

     total energy              =   -1878.29542852 Ry
     estimated scf accuracy    <       6.52280996 Ry

     total magnetization       =    16.08 Bohr mag/cell
     absolute magnetization    =    20.59 Bohr mag/cell
[tb_dev] Currently allocated     2.05E+01 Mbytes, locked:    0 /  13
[tb_pin] Currently allocated     0.00E+00 Mbytes, locked:    0 /   0

     iteration # 40     ecut=    60.00 Ry     beta= 0.40
     Davidson diagonalization with overlap

---- Real-time Memory Report at c_bands before calling an iterative solver
          5380 MiB given to the printing process from OS
           333 MiB allocation reported by mallinfo(arena+hblkhd)
         54463 MiB available memory on the node where the printing process lives
     GPU memory used/free/total (MiB): 4288 / 11992 / 16280
------------------
     ethr =  2.83E-03,  avg # of iterations =  1.2

     negative rho (up, down):  3.749E+00 2.024E+00

     total cpu time spent up to now is      858.6 secs

     total energy              =   -1878.43967619 Ry
     estimated scf accuracy    <       5.12368532 Ry

     total magnetization       =    14.58 Bohr mag/cell
     absolute magnetization    =    19.38 Bohr mag/cell
[tb_dev] Currently allocated     2.05E+01 Mbytes, locked:    0 /  13
[tb_pin] Currently allocated     0.00E+00 Mbytes, locked:    0 /   0

     iteration # 41     ecut=    60.00 Ry     beta= 0.40
     Davidson diagonalization with overlap

---- Real-time Memory Report at c_bands before calling an iterative solver
          5388 MiB given to the printing process from OS
           342 MiB allocation reported by mallinfo(arena+hblkhd)
         54458 MiB available memory on the node where the printing process lives
     GPU memory used/free/total (MiB): 4288 / 11992 / 16280
------------------
     ethr =  2.83E-03,  avg # of iterations =  1.0

     negative rho (up, down):  3.772E+00 2.013E+00

     total cpu time spent up to now is      877.8 secs

     total energy              =   -1878.46557226 Ry
     estimated scf accuracy    <       4.18971231 Ry

     total magnetization       =    16.16 Bohr mag/cell
     absolute magnetization    =    21.52 Bohr mag/cell
[tb_dev] Currently allocated     2.05E+01 Mbytes, locked:    0 /  13
[tb_pin] Currently allocated     0.00E+00 Mbytes, locked:    0 /   0

     iteration # 42     ecut=    60.00 Ry     beta= 0.40
     Davidson diagonalization with overlap

---- Real-time Memory Report at c_bands before calling an iterative solver
          5401 MiB given to the printing process from OS
           350 MiB allocation reported by mallinfo(arena+hblkhd)
         54448 MiB available memory on the node where the printing process lives
     GPU memory used/free/total (MiB): 4288 / 11992 / 16280
------------------
     ethr =  2.83E-03,  avg # of iterations =  1.0

     negative rho (up, down):  3.526E+00 2.080E+00

     total cpu time spent up to now is      897.2 secs

     total energy              =   -1878.43095454 Ry
     estimated scf accuracy    <       5.11238684 Ry

     total magnetization       =    16.13 Bohr mag/cell
     absolute magnetization    =    21.90 Bohr mag/cell
[tb_dev] Currently allocated     2.05E+01 Mbytes, locked:    0 /  13
[tb_pin] Currently allocated     0.00E+00 Mbytes, locked:    0 /   0

     iteration # 43     ecut=    60.00 Ry     beta= 0.40
     Davidson diagonalization with overlap

---- Real-time Memory Report at c_bands before calling an iterative solver
          5409 MiB given to the printing process from OS
           359 MiB allocation reported by mallinfo(arena+hblkhd)
         54443 MiB available memory on the node where the printing process lives
     GPU memory used/free/total (MiB): 4288 / 11992 / 16280
------------------
     ethr =  2.83E-03,  avg # of iterations =  2.0

     negative rho (up, down):  3.636E+00 2.354E+00

     total cpu time spent up to now is      918.3 secs

     total energy              =   -1878.29689827 Ry
     estimated scf accuracy    <      12.23379031 Ry

     total magnetization       =    14.32 Bohr mag/cell
     absolute magnetization    =    18.84 Bohr mag/cell
[tb_dev] Currently allocated     2.05E+01 Mbytes, locked:    0 /  13
[tb_pin] Currently allocated     0.00E+00 Mbytes, locked:    0 /   0

     iteration # 44     ecut=    60.00 Ry     beta= 0.40
     Davidson diagonalization with overlap

---- Real-time Memory Report at c_bands before calling an iterative solver
          5417 MiB given to the printing process from OS
           367 MiB allocation reported by mallinfo(arena+hblkhd)
         54433 MiB available memory on the node where the printing process lives
     GPU memory used/free/total (MiB): 4288 / 11992 / 16280
------------------
     ethr =  2.83E-03,  avg # of iterations =  2.8

     negative rho (up, down):  3.771E+00 2.222E+00

     total cpu time spent up to now is      940.9 secs

     total energy              =   -1878.30670055 Ry
     estimated scf accuracy    <      12.07240251 Ry

     total magnetization       =    12.28 Bohr mag/cell
     absolute magnetization    =    20.71 Bohr mag/cell
[tb_dev] Currently allocated     2.05E+01 Mbytes, locked:    0 /  13
[tb_pin] Currently allocated     0.00E+00 Mbytes, locked:    0 /   0

     iteration # 45     ecut=    60.00 Ry     beta= 0.40
     Davidson diagonalization with overlap

---- Real-time Memory Report at c_bands before calling an iterative solver
          5430 MiB given to the printing process from OS
           376 MiB allocation reported by mallinfo(arena+hblkhd)
         54428 MiB available memory on the node where the printing process lives
     GPU memory used/free/total (MiB): 4288 / 11992 / 16280
------------------
     ethr =  2.83E-03,  avg # of iterations =  2.5

     negative rho (up, down):  3.487E+00 2.590E+00

     total cpu time spent up to now is      962.9 secs

     total energy              =   -1878.08539936 Ry
     estimated scf accuracy    <       7.46921526 Ry

     total magnetization       =    15.16 Bohr mag/cell
     absolute magnetization    =    23.26 Bohr mag/cell
[tb_dev] Currently allocated     2.05E+01 Mbytes, locked:    0 /  13
[tb_pin] Currently allocated     0.00E+00 Mbytes, locked:    0 /   0

     iteration # 46     ecut=    60.00 Ry     beta= 0.40
     Davidson diagonalization with overlap

---- Real-time Memory Report at c_bands before calling an iterative solver
          5438 MiB given to the printing process from OS
           384 MiB allocation reported by mallinfo(arena+hblkhd)
         54419 MiB available memory on the node where the printing process lives
     GPU memory used/free/total (MiB): 4288 / 11992 / 16280
------------------
     ethr =  2.83E-03,  avg # of iterations =  2.8

     negative rho (up, down):  3.497E+00 2.880E+00

     total cpu time spent up to now is      985.0 secs

     total energy              =   -1878.29074105 Ry
     estimated scf accuracy    <       5.32253393 Ry

     total magnetization       =    13.88 Bohr mag/cell
     absolute magnetization    =    20.55 Bohr mag/cell
[tb_dev] Currently allocated     2.05E+01 Mbytes, locked:    0 /  13
[tb_pin] Currently allocated     0.00E+00 Mbytes, locked:    0 /   0

     iteration # 47     ecut=    60.00 Ry     beta= 0.40
     Davidson diagonalization with overlap

---- Real-time Memory Report at c_bands before calling an iterative solver
          5447 MiB given to the printing process from OS
           392 MiB allocation reported by mallinfo(arena+hblkhd)
         54411 MiB available memory on the node where the printing process lives
     GPU memory used/free/total (MiB): 4288 / 11992 / 16280
------------------
     ethr =  2.83E-03,  avg # of iterations =  1.5

     negative rho (up, down):  3.607E+00 2.817E+00

     total cpu time spent up to now is     1005.0 secs

     total energy              =   -1878.45181886 Ry
     estimated scf accuracy    <       3.47302219 Ry

     total magnetization       =    16.00 Bohr mag/cell
     absolute magnetization    =    21.47 Bohr mag/cell
[tb_dev] Currently allocated     2.05E+01 Mbytes, locked:    0 /  13
[tb_pin] Currently allocated     0.00E+00 Mbytes, locked:    0 /   0

     iteration # 48     ecut=    60.00 Ry     beta= 0.40
     Davidson diagonalization with overlap

---- Real-time Memory Report at c_bands before calling an iterative solver
          5455 MiB given to the printing process from OS
           401 MiB allocation reported by mallinfo(arena+hblkhd)
         54404 MiB available memory on the node where the printing process lives
     GPU memory used/free/total (MiB): 4288 / 11992 / 16280
------------------
     ethr =  2.83E-03,  avg # of iterations =  1.5

     negative rho (up, down):  3.710E+00 2.936E+00

     total cpu time spent up to now is     1025.1 secs

     total energy              =   -1878.43124398 Ry
     estimated scf accuracy    <       5.81081536 Ry

     total magnetization       =    16.00 Bohr mag/cell
     absolute magnetization    =    22.63 Bohr mag/cell
[tb_dev] Currently allocated     2.05E+01 Mbytes, locked:    0 /  13
[tb_pin] Currently allocated     0.00E+00 Mbytes, locked:    0 /   0

     iteration # 49     ecut=    60.00 Ry     beta= 0.40
     Davidson diagonalization with overlap

---- Real-time Memory Report at c_bands before calling an iterative solver
          5464 MiB given to the printing process from OS
           409 MiB allocation reported by mallinfo(arena+hblkhd)
         54396 MiB available memory on the node where the printing process lives
     GPU memory used/free/total (MiB): 4288 / 11992 / 16280
------------------
     ethr =  2.83E-03,  avg # of iterations =  1.2

     negative rho (up, down):  3.733E+00 2.990E+00

     total cpu time spent up to now is     1044.5 secs

     total energy              =   -1878.37200601 Ry
     estimated scf accuracy    <       6.44169926 Ry

     total magnetization       =    16.00 Bohr mag/cell
     absolute magnetization    =    21.17 Bohr mag/cell
[tb_dev] Currently allocated     2.05E+01 Mbytes, locked:    0 /  13
[tb_pin] Currently allocated     0.00E+00 Mbytes, locked:    0 /   0

     iteration # 50     ecut=    60.00 Ry     beta= 0.40
     Davidson diagonalization with overlap

---- Real-time Memory Report at c_bands before calling an iterative solver
          5472 MiB given to the printing process from OS
           418 MiB allocation reported by mallinfo(arena+hblkhd)
         54389 MiB available memory on the node where the printing process lives
     GPU memory used/free/total (MiB): 4288 / 11992 / 16280
------------------
     ethr =  2.83E-03,  avg # of iterations =  1.1

     negative rho (up, down):  3.866E+00 2.969E+00

     total cpu time spent up to now is     1063.9 secs

     total energy              =   -1878.60880157 Ry
     estimated scf accuracy    <       3.99531457 Ry

     total magnetization       =    16.00 Bohr mag/cell
     absolute magnetization    =    20.00 Bohr mag/cell
[tb_dev] Currently allocated     2.05E+01 Mbytes, locked:    0 /  13
[tb_pin] Currently allocated     0.00E+00 Mbytes, locked:    0 /   0

     iteration # 51     ecut=    60.00 Ry     beta= 0.40
     Davidson diagonalization with overlap

---- Real-time Memory Report at c_bands before calling an iterative solver
          5481 MiB given to the printing process from OS
           426 MiB allocation reported by mallinfo(arena+hblkhd)
         54380 MiB available memory on the node where the printing process lives
     GPU memory used/free/total (MiB): 4288 / 11992 / 16280
------------------
     ethr =  2.83E-03,  avg # of iterations =  1.5

     negative rho (up, down):  3.957E+00 2.946E+00

     total cpu time spent up to now is     1083.8 secs

     total energy              =   -1878.63798715 Ry
     estimated scf accuracy    <       5.63644248 Ry

     total magnetization       =    16.13 Bohr mag/cell
     absolute magnetization    =    21.12 Bohr mag/cell
[tb_dev] Currently allocated     2.05E+01 Mbytes, locked:    0 /  13
[tb_pin] Currently allocated     0.00E+00 Mbytes, locked:    0 /   0

     iteration # 52     ecut=    60.00 Ry     beta= 0.40
     Davidson diagonalization with overlap

---- Real-time Memory Report at c_bands before calling an iterative solver
          5490 MiB given to the printing process from OS
           434 MiB allocation reported by mallinfo(arena+hblkhd)
         54371 MiB available memory on the node where the printing process lives
     GPU memory used/free/total (MiB): 4288 / 11992 / 16280
------------------
     ethr =  2.83E-03,  avg # of iterations =  1.0

     negative rho (up, down):  3.776E+00 2.790E+00

     total cpu time spent up to now is     1103.0 secs

     total energy              =   -1878.60390670 Ry
     estimated scf accuracy    <       6.20105894 Ry

     total magnetization       =    16.11 Bohr mag/cell
     absolute magnetization    =    21.02 Bohr mag/cell
[tb_dev] Currently allocated     2.05E+01 Mbytes, locked:    0 /  13
[tb_pin] Currently allocated     0.00E+00 Mbytes, locked:    0 /   0

     iteration # 53     ecut=    60.00 Ry     beta= 0.40
     Davidson diagonalization with overlap

---- Real-time Memory Report at c_bands before calling an iterative solver
          5498 MiB given to the printing process from OS
           443 MiB allocation reported by mallinfo(arena+hblkhd)
         54362 MiB available memory on the node where the printing process lives
     GPU memory used/free/total (MiB): 4288 / 11992 / 16280
------------------
     ethr =  2.83E-03,  avg # of iterations =  1.5

     negative rho (up, down):  3.665E+00 2.817E+00

     total cpu time spent up to now is     1123.1 secs

     total energy              =   -1878.29474678 Ry
     estimated scf accuracy    <       7.88429948 Ry

     total magnetization       =    16.18 Bohr mag/cell
     absolute magnetization    =    20.23 Bohr mag/cell
[tb_dev] Currently allocated     2.05E+01 Mbytes, locked:    0 /  13
[tb_pin] Currently allocated     0.00E+00 Mbytes, locked:    0 /   0

     iteration # 54     ecut=    60.00 Ry     beta= 0.40
     Davidson diagonalization with overlap

---- Real-time Memory Report at c_bands before calling an iterative solver
          5511 MiB given to the printing process from OS
           451 MiB allocation reported by mallinfo(arena+hblkhd)
         54354 MiB available memory on the node where the printing process lives
     GPU memory used/free/total (MiB): 4288 / 11992 / 16280
------------------
     ethr =  2.83E-03,  avg # of iterations =  1.1

     negative rho (up, down):  3.637E+00 2.987E+00

     total cpu time spent up to now is     1142.5 secs

     total energy              =   -1878.37819686 Ry
[...]
     estimated scf accuracy    <      12.66049196 Ry

     total magnetization       =    16.06 Bohr mag/cell
     absolute magnetization    =    22.33 Bohr mag/cell
[tb_dev] Currently allocated     2.05E+01 Mbytes, locked:    0 /  13
[tb_pin] Currently allocated     0.00E+00 Mbytes, locked:    0 /   0

     iteration # 66     ecut=    60.00 Ry     beta= 0.40
     Davidson diagonalization with overlap

---- Real-time Memory Report at c_bands before calling an iterative solver
          5617 MiB given to the printing process from OS
           569 MiB allocation reported by mallinfo(arena+hblkhd)
         54252 MiB available memory on the node where the printing process lives
     GPU memory used/free/total (MiB): 4288 / 11992 / 16280
------------------
     ethr =  2.83E-03,  avg # of iterations =  3.0

     negative rho (up, down):  3.731E+00 2.626E+00

     total cpu time spent up to now is     1393.6 secs

     total energy              =   -1877.28241204 Ry
     estimated scf accuracy    <      25.09124698 Ry

     total magnetization       =     4.00 Bohr mag/cell
     absolute magnetization    =    10.88 Bohr mag/cell
[tb_dev] Currently allocated     2.05E+01 Mbytes, locked:    0 /  13
[tb_pin] Currently allocated     0.00E+00 Mbytes, locked:    0 /   0

     iteration # 67     ecut=    60.00 Ry     beta= 0.40
     Davidson diagonalization with overlap

---- Real-time Memory Report at c_bands before calling an iterative solver
          5629 MiB given to the printing process from OS
           578 MiB allocation reported by mallinfo(arena+hblkhd)
         54245 MiB available memory on the node where the printing process lives
     GPU memory used/free/total (MiB): 4288 / 11992 / 16280
------------------
     ethr =  2.83E-03,  avg # of iterations =  2.0

     negative rho (up, down):  3.620E+00 2.630E+00

     total cpu time spent up to now is     1414.6 secs

     total energy              =   -1878.51912807 Ry
     estimated scf accuracy    <       6.80095007 Ry

     total magnetization       =    16.00 Bohr mag/cell
     absolute magnetization    =    21.55 Bohr mag/cell
[tb_dev] Currently allocated     2.05E+01 Mbytes, locked:    0 /  13
[tb_pin] Currently allocated     0.00E+00 Mbytes, locked:    0 /   0

     iteration # 68     ecut=    60.00 Ry     beta= 0.40
     Davidson diagonalization with overlap

---- Real-time Memory Report at c_bands before calling an iterative solver
          5638 MiB given to the printing process from OS
           586 MiB allocation reported by mallinfo(arena+hblkhd)
         54235 MiB available memory on the node where the printing process lives
     GPU memory used/free/total (MiB): 4288 / 11992 / 16280
------------------
     ethr =  2.83E-03,  avg # of iterations =  1.0

     negative rho (up, down):  3.602E+00 2.611E+00

     total cpu time spent up to now is     1433.9 secs

     total energy              =   -1878.53393589 Ry
     estimated scf accuracy    <       7.09649838 Ry

     total magnetization       =    16.00 Bohr mag/cell
     absolute magnetization    =    22.13 Bohr mag/cell
[tb_dev] Currently allocated     2.05E+01 Mbytes, locked:    0 /  13
[tb_pin] Currently allocated     0.00E+00 Mbytes, locked:    0 /   0

     iteration # 69     ecut=    60.00 Ry     beta= 0.40
     Davidson diagonalization with overlap

---- Real-time Memory Report at c_bands before calling an iterative solver
          5646 MiB given to the printing process from OS
           595 MiB allocation reported by mallinfo(arena+hblkhd)
         54227 MiB available memory on the node where the printing process lives
     GPU memory used/free/total (MiB): 4288 / 11992 / 16280
------------------
     ethr =  2.83E-03,  avg # of iterations =  1.0

     negative rho (up, down):  3.586E+00 2.494E+00

     total cpu time spent up to now is     1453.2 secs

     total energy              =   -1878.48494622 Ry
     estimated scf accuracy    <       6.13333452 Ry

     total magnetization       =    16.00 Bohr mag/cell
     absolute magnetization    =    21.58 Bohr mag/cell
[tb_dev] Currently allocated     2.05E+01 Mbytes, locked:    0 /  13
[tb_pin] Currently allocated     0.00E+00 Mbytes, locked:    0 /   0

     iteration # 70     ecut=    60.00 Ry     beta= 0.40
     Davidson diagonalization with overlap

---- Real-time Memory Report at c_bands before calling an iterative solver
          5654 MiB given to the printing process from OS
           603 MiB allocation reported by mallinfo(arena+hblkhd)
         54219 MiB available memory on the node where the printing process lives
     GPU memory used/free/total (MiB): 4288 / 11992 / 16280
------------------
     ethr =  2.83E-03,  avg # of iterations =  1.5

     negative rho (up, down):  3.754E+00 2.576E+00

     total cpu time spent up to now is     1473.2 secs

     total energy              =   -1878.36043869 Ry
     estimated scf accuracy    <       6.42245245 Ry

     total magnetization       =    16.00 Bohr mag/cell
     absolute magnetization    =    22.57 Bohr mag/cell
[tb_dev] Currently allocated     2.05E+01 Mbytes, locked:    0 /  13
[tb_pin] Currently allocated     0.00E+00 Mbytes, locked:    0 /   0

     iteration # 71     ecut=    60.00 Ry     beta= 0.40
     Davidson diagonalization with overlap

---- Real-time Memory Report at c_bands before calling an iterative solver
          5662 MiB given to the printing process from OS
           612 MiB allocation reported by mallinfo(arena+hblkhd)
         54208 MiB available memory on the node where the printing process lives
     GPU memory used/free/total (MiB): 4288 / 11992 / 16280
------------------
     ethr =  2.83E-03,  avg # of iterations =  3.0

     negative rho (up, down):  3.586E+00 2.446E+00

     total cpu time spent up to now is     1497.2 secs

     total energy              =   -1878.06504986 Ry
     estimated scf accuracy    <      14.33320208 Ry

     total magnetization       =    15.90 Bohr mag/cell
     absolute magnetization    =    23.24 Bohr mag/cell
[tb_dev] Currently allocated     2.05E+01 Mbytes, locked:    0 /  13
[tb_pin] Currently allocated     0.00E+00 Mbytes, locked:    0 /   0

     iteration # 72     ecut=    60.00 Ry     beta= 0.40
     Davidson diagonalization with overlap

---- Real-time Memory Report at c_bands before calling an iterative solver
          5671 MiB given to the printing process from OS
           620 MiB allocation reported by mallinfo(arena+hblkhd)
         54197 MiB available memory on the node where the printing process lives
     GPU memory used/free/total (MiB): 4288 / 11992 / 16280
------------------
     ethr =  2.83E-03,  avg # of iterations =  3.0

     negative rho (up, down):  3.573E+00 2.572E+00

     total cpu time spent up to now is     1519.6 secs

     total energy              =   -1878.31058106 Ry
     estimated scf accuracy    <       2.23454829 Ry

     total magnetization       =    16.00 Bohr mag/cell
     absolute magnetization    =    19.38 Bohr mag/cell
[tb_dev] Currently allocated     2.05E+01 Mbytes, locked:    0 /  13
[tb_pin] Currently allocated     0.00E+00 Mbytes, locked:    0 /   0

     iteration # 73     ecut=    60.00 Ry     beta= 0.40
     Davidson diagonalization with overlap

---- Real-time Memory Report at c_bands before calling an iterative solver
          5679 MiB given to the printing process from OS
           628 MiB allocation reported by mallinfo(arena+hblkhd)
         54192 MiB available memory on the node where the printing process lives
     GPU memory used/free/total (MiB): 4288 / 11992 / 16280
------------------
     ethr =  2.79E-03,  avg # of iterations =  1.5

     negative rho (up, down):  3.532E+00 2.601E+00

     total cpu time spent up to now is     1539.8 secs

     total energy              =   -1878.41226577 Ry
     estimated scf accuracy    <       2.19923947 Ry

     total magnetization       =    16.00 Bohr mag/cell
     absolute magnetization    =    19.20 Bohr mag/cell
[tb_dev] Currently allocated     2.05E+01 Mbytes, locked:    0 /  13
[tb_pin] Currently allocated     0.00E+00 Mbytes, locked:    0 /   0

     iteration # 74     ecut=    60.00 Ry     beta= 0.40
     Davidson diagonalization with overlap

---- Real-time Memory Report at c_bands before calling an iterative solver
          5692 MiB given to the printing process from OS
           637 MiB allocation reported by mallinfo(arena+hblkhd)
         54183 MiB available memory on the node where the printing process lives
     GPU memory used/free/total (MiB): 4288 / 11992 / 16280
------------------
     ethr =  2.75E-03,  avg # of iterations =  1.1

     negative rho (up, down):  3.536E+00 2.594E+00

     total cpu time spent up to now is     1559.2 secs

     total energy              =   -1878.50323718 Ry
     estimated scf accuracy    <       2.40430018 Ry

     total magnetization       =    16.00 Bohr mag/cell
     absolute magnetization    =    19.72 Bohr mag/cell
[tb_dev] Currently allocated     2.05E+01 Mbytes, locked:    0 /  13
[tb_pin] Currently allocated     0.00E+00 Mbytes, locked:    0 /   0

     iteration # 75     ecut=    60.00 Ry     beta= 0.40
     Davidson diagonalization with overlap

---- Real-time Memory Report at c_bands before calling an iterative solver
          5700 MiB given to the printing process from OS
           645 MiB allocation reported by mallinfo(arena+hblkhd)
         54175 MiB available memory on the node where the printing process lives
     GPU memory used/free/total (MiB): 4288 / 11992 / 16280
------------------
     ethr =  2.75E-03,  avg # of iterations =  1.0

     negative rho (up, down):  3.540E+00 2.605E+00

     total cpu time spent up to now is     1578.4 secs

     total energy              =   -1878.51546360 Ry
     estimated scf accuracy    <       1.82761276 Ry

     total magnetization       =    16.00 Bohr mag/cell
     absolute magnetization    =    19.71 Bohr mag/cell
[tb_dev] Currently allocated     2.05E+01 Mbytes, locked:    0 /  13
[tb_pin] Currently allocated     0.00E+00 Mbytes, locked:    0 /   0

     iteration # 76     ecut=    60.00 Ry     beta= 0.40
     Davidson diagonalization with overlap

---- Real-time Memory Report at c_bands before calling an iterative solver
          5709 MiB given to the printing process from OS
           654 MiB allocation reported by mallinfo(arena+hblkhd)
         54168 MiB available memory on the node where the printing process lives
     GPU memory used/free/total (MiB): 4288 / 11992 / 16280
------------------
     ethr =  2.28E-03,  avg # of iterations =  1.0

     negative rho (up, down):  3.551E+00 2.668E+00

     total cpu time spent up to now is     1597.6 secs

     total energy              =   -1878.49780856 Ry
     estimated scf accuracy    <       2.04516433 Ry

     total magnetization       =    16.00 Bohr mag/cell
     absolute magnetization    =    19.58 Bohr mag/cell
[tb_dev] Currently allocated     2.05E+01 Mbytes, locked:    0 /  13
[tb_pin] Currently allocated     0.00E+00 Mbytes, locked:    0 /   0

     iteration # 77     ecut=    60.00 Ry     beta= 0.40
     Davidson diagonalization with overlap

---- Real-time Memory Report at c_bands before calling an iterative solver
          5716 MiB given to the printing process from OS
           662 MiB allocation reported by mallinfo(arena+hblkhd)
         54161 MiB available memory on the node where the printing process lives
     GPU memory used/free/total (MiB): 4288 / 11992 / 16280
------------------
     ethr =  2.28E-03,  avg # of iterations =  1.0

     negative rho (up, down):  3.478E+00 2.792E+00

     total cpu time spent up to now is     1616.8 secs

     total energy              =   -1878.44261555 Ry
     estimated scf accuracy    <       1.43071131 Ry

     total magnetization       =    16.00 Bohr mag/cell
     absolute magnetization    =    19.56 Bohr mag/cell
[tb_dev] Currently allocated     2.05E+01 Mbytes, locked:    0 /  13
[tb_pin] Currently allocated     0.00E+00 Mbytes, locked:    0 /   0

     iteration # 78     ecut=    60.00 Ry     beta= 0.40
     Davidson diagonalization with overlap

---- Real-time Memory Report at c_bands before calling an iterative solver
          5725 MiB given to the printing process from OS
           671 MiB allocation reported by mallinfo(arena+hblkhd)
         54150 MiB available memory on the node where the printing process lives
     GPU memory used/free/total (MiB): 4288 / 11992 / 16280
------------------
     ethr =  1.79E-03,  avg # of iterations =  2.0

     negative rho (up, down):  3.598E+00 2.898E+00

     total cpu time spent up to now is     1637.8 secs

     total energy              =   -1878.45617644 Ry
     estimated scf accuracy    <       3.06096336 Ry

     total magnetization       =    16.00 Bohr mag/cell
     absolute magnetization    =    19.71 Bohr mag/cell
[tb_dev] Currently allocated     2.05E+01 Mbytes, locked:    0 /  13
[tb_pin] Currently allocated     0.00E+00 Mbytes, locked:    0 /   0

     iteration # 79     ecut=    60.00 Ry     beta= 0.40
     Davidson diagonalization with overlap

---- Real-time Memory Report at c_bands before calling an iterative solver
          5733 MiB given to the printing process from OS
           679 MiB allocation reported by mallinfo(arena+hblkhd)
         54142 MiB available memory on the node where the printing process lives
     GPU memory used/free/total (MiB): 4288 / 11992 / 16280
------------------
     ethr =  1.79E-03,  avg # of iterations =  1.3

     negative rho (up, down):  3.652E+00 2.976E+00

     total cpu time spent up to now is     1657.4 secs

     total energy              =   -1878.51824997 Ry
     estimated scf accuracy    <       1.28240992 Ry

     total magnetization       =    16.00 Bohr mag/cell
     absolute magnetization    =    19.76 Bohr mag/cell
[tb_dev] Currently allocated     2.05E+01 Mbytes, locked:    0 /  13
[tb_pin] Currently allocated     0.00E+00 Mbytes, locked:    0 /   0

     iteration # 80     ecut=    60.00 Ry     beta= 0.40
     Davidson diagonalization with overlap

---- Real-time Memory Report at c_bands before calling an iterative solver
          5742 MiB given to the printing process from OS
           687 MiB allocation reported by mallinfo(arena+hblkhd)
         54136 MiB available memory on the node where the printing process lives
     GPU memory used/free/total (MiB): 4288 / 11992 / 16280
------------------
     ethr =  1.60E-03,  avg # of iterations =  1.8

     negative rho (up, down):  3.657E+00 2.941E+00

     total cpu time spent up to now is     1677.6 secs

     total energy              =   -1878.52894093 Ry
     estimated scf accuracy    <       1.89697948 Ry

     total magnetization       =    16.00 Bohr mag/cell
     absolute magnetization    =    20.30 Bohr mag/cell

     End of self-consistent calculation

     convergence NOT achieved after  80 iterations: stopping

     Writing config to output data dir ./out/aiida.save/
 
     init_run     :     49.95s CPU     18.55s WALL (       1 calls)
     electrons    :   3032.60s CPU   1658.63s WALL (       1 calls)

     Called by init_run:
     wfcinit      :     10.89s CPU     12.92s WALL (       1 calls)
                                       12.92s GPU  (       1 calls)
     wfcinit:atom :      0.09s CPU      0.17s WALL (     232 calls)
                                        0.17s GPU  (     232 calls)
     wfcinit:wfcr :      6.50s CPU      7.34s WALL (     232 calls)
                                        7.34s GPU  (     232 calls)
     potinit      :     23.89s CPU      2.18s WALL (       1 calls)
     hinit0       :      8.15s CPU      2.28s WALL (       1 calls)

     Called by electrons:
     c_bands      :   1245.53s CPU   1227.78s WALL (      80 calls)
     sum_band     :    279.88s CPU    293.43s WALL (      80 calls)
     v_of_rho     :     70.13s CPU      6.32s WALL (      81 calls)
     v_h          :     10.18s CPU      0.90s WALL (      81 calls)
     v_xc         :     59.94s CPU      5.42s WALL (      81 calls)
     newd         :     77.26s CPU      7.38s WALL (      81 calls)
                                        7.37s GPU  (      81 calls)
     PAW_pot      :   1272.71s CPU    114.85s WALL (      81 calls)
     mix_rho      :     77.43s CPU      7.98s WALL (      80 calls)

     Called by c_bands:
     init_us_2    :     53.35s CPU     64.24s WALL (   37352 calls)
     init_us_2:gp :     52.65s CPU     63.58s WALL (   37352 calls)
     cegterg      :   1045.38s CPU   1023.05s WALL (   18560 calls)

     Called by sum_band:
     sum_band:wei :      1.03s CPU      1.04s WALL (      80 calls)
                                        1.03s GPU  (      80 calls)
     sum_band:loo :    266.68s CPU    280.09s WALL (      80 calls)
                                      280.09s GPU  (      80 calls)
     sum_band:buf :     69.11s CPU     71.09s WALL (   18560 calls)
                                       70.97s GPU  (   18560 calls)
     sum_band:ini :     23.89s CPU     27.67s WALL (   18560 calls)
                                       27.56s GPU  (   18560 calls)
     sum_band:cal :      0.59s CPU     14.71s WALL (   18560 calls)
                                        7.77s GPU  (   18560 calls)
     sum_band:bec :      5.03s CPU      5.42s WALL (   18560 calls)
                                        5.27s GPU  (   18560 calls)
     addusdens    :      5.84s CPU      5.97s WALL (      80 calls)
                                        5.97s GPU  (      80 calls)
     addusd:skk   :      0.05s CPU      0.06s WALL (     160 calls)
                                        0.06s GPU  (     160 calls)

     Called by *egterg:
     cdiaghg      :    168.46s CPU    182.15s WALL (   51741 calls)
                                      181.80s GPU  (   51741 calls)
     cegterg:over :     15.52s CPU     15.22s WALL (   33181 calls)
     cegterg:upda :     19.00s CPU     19.78s WALL (   33181 calls)
     cegterg:last :     12.27s CPU     11.95s WALL (   27533 calls)
     h_psi        :    777.69s CPU    744.27s WALL (   51973 calls)
                                      743.11s GPU  (   51973 calls)
     s_psi        :      9.67s CPU     26.17s WALL (   51973 calls)
                                       23.83s GPU  (   51973 calls)
     g_psi        :      0.26s CPU      2.41s WALL (   33181 calls)
                                        2.20s GPU  (   33181 calls)

     Called by h_psi:
     h_psi:calbec :      2.02s CPU     20.46s WALL (   51973 calls)
                                       20.12s GPU  (   51973 calls)
     vloc_psi     :    717.99s CPU    687.89s WALL (   51973 calls)
                                      687.56s GPU  (   51973 calls)
     add_vuspsi   :     15.58s CPU     29.74s WALL (   51973 calls)
                                       29.40s GPU  (   51973 calls)

     General routines
     calbec       :      1.90s CPU      1.85s WALL (   70533 calls)
     fft          :      3.34s CPU      0.84s WALL (    2023 calls)
                                        0.65s GPU  (    1861 calls)
     ffts         :      0.27s CPU      0.10s WALL (     322 calls)
                                        0.03s GPU  (     160 calls)
     fftw         :      8.89s CPU    673.51s WALL (  311394 calls)
                                      670.22s GPU  (  311394 calls)
     interpolate  :     10.53s CPU      0.93s WALL (     162 calls)
     davcio       :      0.29s CPU      1.91s WALL (     250 calls)
 
     Parallel routines

     PAW routines
     PAW_pot      :   1272.71s CPU    114.85s WALL (      81 calls)
     PAW_symme    :      0.15s CPU      0.02s WALL (     161 calls)
 
     PWSCF        :  51m25.50s CPU  28m 0.19s WALL

 
   This run was terminated on:  22:20:20  23Oct2023            

=------------------------------------------------------------------------------=
   JOB DONE.
=------------------------------------------------------------------------------=
