
     Program PWSCF v.7.2 starts on 22Oct2023 at 22: 9:19 

     This program is part of the open-source Quantum ESPRESSO suite
     for quantum simulation of materials; please cite
         "P. Giannozzi et al., J. Phys.:Condens. Matter 21 395502 (2009);
         "P. Giannozzi et al., J. Phys.:Condens. Matter 29 465901 (2017);
         "P. Giannozzi et al., J. Chem. Phys. 152 154105 (2020);
          URL http://www.quantum-espresso.org", 
     in publications or presentations arising from this work. More details at
     http://www.quantum-espresso.org/quote

     Parallel version (MPI & OpenMP), running on      12 processor cores
     Number of MPI processes:                 1
     Threads/MPI process:                    12

     MPI processes distributed on     1 nodes
     60332 MiB available memory on the printing compute node when the environment starts
 
     Reading input from aiida.in

     Current dimensions of program PWSCF are:
     Max number of different atomic species (ntypx) = 10
     Max number of k-points (npk) =  40000
     Max angular momentum in pseudopotentials (lmaxx) =  4
     file Fe.pbesol-spn-kjpaw_psl.0.2.1.UPF: wavefunction(s)  3D renormalized
     Message from routine setup:
     using ibrav=0 with symmetry is DISCOURAGED, use correct ibrav instead
 
     Subspace diagonalization in iterative solution of the eigenvalue problem:
     a serial algorithm will be used

 
     G-vector sticks info
     --------------------
     sticks:   dense  smooth     PW     G-vecs:    dense   smooth      PW
     Sum        4741    1573    451               215583    41391    6423
 
     Using Slab Decomposition
 


     bravais-lattice index     =            0
     lattice parameter (alat)  =       7.9827  a.u.
     unit-cell volume          =     359.6932 (a.u.)^3
     number of atoms/cell      =            4
     number of atomic types    =            3
     number of electrons       =        60.00
     number of Kohn-Sham states=           36
     kinetic-energy cutoff     =      90.0000  Ry
     charge density cutoff     =    1080.0000  Ry
     scf convergence threshold =      8.0E-10
     mixing beta               =       0.4000
     number of iterations used =            8  plain     mixing
     Exchange-correlation= SLA  PW   PSX  PSC
                           (   1   4  10   8   0   0   0)

     GPU acceleration is ACTIVE.


     GPU used by master process:

        Device Number: 0
        Device name: Tesla P100-PCIE-16GB
        Compute capability : 60
        Ratio of single to double precision performance  : 2
        Memory Clock Rate (KHz): 715000
        Memory Bus Width (bits): 4096
        Peak Memory Bandwidth (GB/s): 732.16

     celldm(1)=   7.982687  celldm(2)=   0.000000  celldm(3)=   0.000000
     celldm(4)=   0.000000  celldm(5)=   0.000000  celldm(6)=   0.000000

     crystal axes: (cart. coord. in units of alat)
               a(1) = (   0.000000   0.707107   0.707107 )  
               a(2) = (   0.707107   0.000000   0.707107 )  
               a(3) = (   0.707107   0.707107   0.000000 )  

     reciprocal axes: (cart. coord. in units 2 pi/alat)
               b(1) = ( -0.707107  0.707107  0.707107 )  
               b(2) = (  0.707107 -0.707107  0.707107 )  
               b(3) = (  0.707107  0.707107 -0.707107 )  


     PseudoPot. # 1 for Cr read from file:
     ./pseudo/cr_pbesol_v1.5.uspp.F.UPF
     MD5 check sum: a621641e0be27168676a837af8893d0f
     Pseudo is Ultrasoft + core correction, Zval = 14.0
     Generated by new atomic code, or converted to UPF format
     Using radial grid of  857 points,  6 beta functions with: 
                l(1) =   0
                l(2) =   0
                l(3) =   1
                l(4) =   1
                l(5) =   2
                l(6) =   2
     Q(r) pseudized with  8 coefficients,  rinner =    0.950   0.950   0.950
                                                       0.950   0.950

     PseudoPot. # 2 for Fe read from file:
     ./pseudo/Fe.pbesol-spn-kjpaw_psl.0.2.1.UPF
     MD5 check sum: 4d7ec5aa2156491519a4322664fbbf52
     Pseudo is Projector augmented-wave + core cor, Zval = 16.0
     Generated using "atomic" code by A. Dal Corso  v.6.0 svn rev. 13079
     Shape of augmentation charge: PSQ
     Using radial grid of 1191 points,  6 beta functions with: 
                l(1) =   0
                l(2) =   0
                l(3) =   1
                l(4) =   1
                l(5) =   2
                l(6) =   2
     Q(r) pseudized with 0 coefficients 


     PseudoPot. # 3 for Sn read from file:
     ./pseudo/sn_pbesol_v1.4.uspp.F.UPF
     MD5 check sum: 463fec1d5456f1e96ec1bfcad4b7b038
     Pseudo is Ultrasoft + core correction, Zval = 14.0
     Generated by new atomic code, or converted to UPF format
     Using radial grid of  891 points,  6 beta functions with: 
                l(1) =   0
                l(2) =   0
                l(3) =   1
                l(4) =   1
                l(5) =   2
                l(6) =   2
     Q(r) pseudized with  8 coefficients,  rinner =    1.350   1.350   1.350
                                                       1.350   1.350

     atomic species   valence    mass     pseudopotential
        Cr            14.00    51.99610     Cr( 1.00)
        Fe            16.00    55.84500     Fe( 1.00)
        Sn            14.00   118.71000     Sn( 1.00)

     Starting magnetic structure 
     atomic species   magnetization
        Cr           0.357
        Fe           0.313
        Sn           0.100

     48 Sym. Ops., with inversion, found


                                    s                        frac. trans.

      isym =  1     identity                                     

 cryst.   s( 1) = (     1          0          0      )
                  (     0          1          0      )
                  (     0          0          1      )

 cart.    s( 1) = (  1.0000000 -0.0000000  0.0000000 )
                  ( -0.0000000  1.0000000  0.0000000 )
                  ( -0.0000000  0.0000000  1.0000000 )


      isym =  2     180 deg rotation - cart. axis [0,0,1]        

 cryst.   s( 2) = (     0          1         -1      )
                  (     1          0         -1      )
                  (     0          0         -1      )

 cart.    s( 2) = ( -1.0000000  0.0000000  0.0000000 )
                  (  0.0000000 -1.0000000  0.0000000 )
                  (  0.0000000 -0.0000000  1.0000000 )


      isym =  3     180 deg rotation - cart. axis [0,1,0]        

 cryst.   s( 3) = (     0         -1          1      )
                  (     0         -1          0      )
                  (     1         -1          0      )

 cart.    s( 3) = ( -1.0000000 -0.0000000 -0.0000000 )
                  (  0.0000000  1.0000000 -0.0000000 )
                  (  0.0000000  0.0000000 -1.0000000 )


      isym =  4     180 deg rotation - cart. axis [1,0,0]        

 cryst.   s( 4) = (    -1          0          0      )
                  (    -1          0          1      )
                  (    -1          1          0      )

 cart.    s( 4) = (  1.0000000  0.0000000 -0.0000000 )
                  ( -0.0000000 -1.0000000 -0.0000000 )
                  ( -0.0000000 -0.0000000 -1.0000000 )


      isym =  5     180 deg rotation - cart. axis [1,1,0]        

 cryst.   s( 5) = (    -1          0          1      )
                  (     0         -1          1      )
                  (     0          0          1      )

 cart.    s( 5) = ( -0.0000000  1.0000000 -0.0000000 )
                  (  1.0000000 -0.0000000 -0.0000000 )
                  (  0.0000000 -0.0000000 -1.0000000 )


      isym =  6     180 deg rotation - cart. axis [1,-1,0]       

 cryst.   s( 6) = (     0         -1          0      )
                  (    -1          0          0      )
                  (     0          0         -1      )

 cart.    s( 6) = (  0.0000000 -1.0000000 -0.0000000 )
                  ( -1.0000000  0.0000000 -0.0000000 )
                  ( -0.0000000  0.0000000 -1.0000000 )


      isym =  7      90 deg rotation - cart. axis [0,0,-1]       

 cryst.   s( 7) = (     0          1          0      )
                  (     0          1         -1      )
                  (    -1          1          0      )

 cart.    s( 7) = (  0.0000000  1.0000000  0.0000000 )
                  ( -1.0000000 -0.0000000  0.0000000 )
                  ( -0.0000000 -0.0000000  1.0000000 )


      isym =  8      90 deg rotation - cart. axis [0,0,1]        

 cryst.   s( 8) = (     1          0         -1      )
                  (     1          0          0      )
                  (     1         -1          0      )

 cart.    s( 8) = ( -0.0000000 -1.0000000  0.0000000 )
                  (  1.0000000  0.0000000  0.0000000 )
                  (  0.0000000  0.0000000  1.0000000 )


      isym =  9     180 deg rotation - cart. axis [1,0,1]        

 cryst.   s( 9) = (    -1          1          0      )
                  (     0          1          0      )
                  (     0          1         -1      )

 cart.    s( 9) = (  0.0000000  0.0000000  1.0000000 )
                  (  0.0000000 -1.0000000 -0.0000000 )
                  (  1.0000000 -0.0000000 -0.0000000 )


      isym = 10     180 deg rotation - cart. axis [-1,0,1]       

 cryst.   s(10) = (     0          0         -1      )
                  (     0         -1          0      )
                  (    -1          0          0      )

 cart.    s(10) = ( -0.0000000  0.0000000 -1.0000000 )
                  ( -0.0000000 -1.0000000  0.0000000 )
                  ( -1.0000000 -0.0000000  0.0000000 )


      isym = 11      90 deg rotation - cart. axis [0,1,0]        

 cryst.   s(11) = (     0          0          1      )
                  (    -1          0          1      )
                  (     0         -1          1      )

 cart.    s(11) = ( -0.0000000 -0.0000000  1.0000000 )
                  ( -0.0000000  1.0000000 -0.0000000 )
                  ( -1.0000000  0.0000000 -0.0000000 )


      isym = 12      90 deg rotation - cart. axis [0,-1,0]       

 cryst.   s(12) = (     1         -1          0      )
                  (     1          0         -1      )
                  (     1          0          0      )

 cart.    s(12) = (  0.0000000 -0.0000000 -1.0000000 )
                  (  0.0000000  1.0000000  0.0000000 )
                  (  1.0000000  0.0000000  0.0000000 )


      isym = 13     180 deg rotation - cart. axis [0,1,1]        

 cryst.   s(13) = (     1          0          0      )
                  (     1         -1          0      )
                  (     1          0         -1      )

 cart.    s(13) = ( -1.0000000  0.0000000 -0.0000000 )
                  (  0.0000000  0.0000000  1.0000000 )
                  (  0.0000000  1.0000000  0.0000000 )


      isym = 14     180 deg rotation - cart. axis [0,1,-1]       

 cryst.   s(14) = (    -1          0          0      )
                  (     0          0         -1      )
                  (     0         -1          0      )

 cart.    s(14) = ( -1.0000000 -0.0000000  0.0000000 )
                  (  0.0000000 -0.0000000 -1.0000000 )
                  (  0.0000000 -1.0000000 -0.0000000 )


      isym = 15      90 deg rotation - cart. axis [-1,0,0]       

 cryst.   s(15) = (     0         -1          1      )
                  (     0          0          1      )
                  (    -1          0          1      )

 cart.    s(15) = (  1.0000000 -0.0000000 -0.0000000 )
                  ( -0.0000000 -0.0000000  1.0000000 )
                  ( -0.0000000 -1.0000000  0.0000000 )


      isym = 16      90 deg rotation - cart. axis [1,0,0]        

 cryst.   s(16) = (     0          1         -1      )
                  (    -1          1          0      )
                  (     0          1          0      )

 cart.    s(16) = (  1.0000000  0.0000000  0.0000000 )
                  ( -0.0000000  0.0000000 -1.0000000 )
                  ( -0.0000000  1.0000000 -0.0000000 )


      isym = 17     120 deg rotation - cart. axis [-1,-1,-1]     

 cryst.   s(17) = (     0          0          1      )
                  (     1          0          0      )
                  (     0          1          0      )

 cart.    s(17) = (  0.0000000  1.0000000 -0.0000000 )
                  (  0.0000000 -0.0000000  1.0000000 )
                  (  1.0000000 -0.0000000  0.0000000 )


      isym = 18     120 deg rotation - cart. axis [-1,1,1]       

 cryst.   s(18) = (     1         -1          0      )
                  (     0         -1          1      )
                  (     0         -1          0      )

 cart.    s(18) = ( -0.0000000 -1.0000000 -0.0000000 )
                  ( -0.0000000  0.0000000  1.0000000 )
                  ( -1.0000000  0.0000000  0.0000000 )


      isym = 19     120 deg rotation - cart. axis [1,1,-1]       

 cryst.   s(19) = (    -1          1          0      )
                  (    -1          0          0      )
                  (    -1          0          1      )

 cart.    s(19) = ( -0.0000000  1.0000000  0.0000000 )
                  ( -0.0000000 -0.0000000 -1.0000000 )
                  ( -1.0000000 -0.0000000 -0.0000000 )


      isym = 20     120 deg rotation - cart. axis [1,-1,1]       

 cryst.   s(20) = (     0          0         -1      )
                  (     0          1         -1      )
                  (     1          0         -1      )

 cart.    s(20) = (  0.0000000 -1.0000000  0.0000000 )
                  (  0.0000000  0.0000000 -1.0000000 )
                  (  1.0000000  0.0000000 -0.0000000 )


      isym = 21     120 deg rotation - cart. axis [1,1,1]        

 cryst.   s(21) = (     0          1          0      )
                  (     0          0          1      )
                  (     1          0          0      )

 cart.    s(21) = ( -0.0000000  0.0000000  1.0000000 )
                  (  1.0000000  0.0000000 -0.0000000 )
                  (  0.0000000  1.0000000 -0.0000000 )


      isym = 22     120 deg rotation - cart. axis [-1,1,-1]      

 cryst.   s(22) = (    -1          0          1      )
                  (    -1          1          0      )
                  (    -1          0          0      )

 cart.    s(22) = (  0.0000000 -0.0000000  1.0000000 )
                  ( -1.0000000 -0.0000000 -0.0000000 )
                  ( -0.0000000 -1.0000000 -0.0000000 )


      isym = 23     120 deg rotation - cart. axis [1,-1,-1]      

 cryst.   s(23) = (     1          0         -1      )
                  (     0          0         -1      )
                  (     0          1         -1      )

 cart.    s(23) = (  0.0000000  0.0000000 -1.0000000 )
                  ( -1.0000000  0.0000000  0.0000000 )
                  ( -0.0000000  1.0000000  0.0000000 )


      isym = 24     120 deg rotation - cart. axis [-1,-1,1]      

 cryst.   s(24) = (     0         -1          0      )
                  (     1         -1          0      )
                  (     0         -1          1      )

 cart.    s(24) = ( -0.0000000 -0.0000000 -1.0000000 )
                  (  1.0000000 -0.0000000  0.0000000 )
                  (  0.0000000 -1.0000000  0.0000000 )


      isym = 25     inversion                                    

 cryst.   s(25) = (    -1          0          0      )
                  (     0         -1          0      )
                  (     0          0         -1      )

 cart.    s(25) = ( -1.0000000  0.0000000 -0.0000000 )
                  (  0.0000000 -1.0000000 -0.0000000 )
                  (  0.0000000 -0.0000000 -1.0000000 )


      isym = 26     inv. 180 deg rotation - cart. axis [0,0,1]   

 cryst.   s(26) = (     0         -1          1      )
                  (    -1          0          1      )
                  (     0          0          1      )

 cart.    s(26) = (  1.0000000 -0.0000000 -0.0000000 )
                  ( -0.0000000  1.0000000 -0.0000000 )
                  ( -0.0000000  0.0000000 -1.0000000 )


      isym = 27     inv. 180 deg rotation - cart. axis [0,1,0]   

 cryst.   s(27) = (     0          1         -1      )
                  (     0          1          0      )
                  (    -1          1          0      )

 cart.    s(27) = (  1.0000000  0.0000000  0.0000000 )
                  ( -0.0000000 -1.0000000  0.0000000 )
                  ( -0.0000000 -0.0000000  1.0000000 )


      isym = 28     inv. 180 deg rotation - cart. axis [1,0,0]   

 cryst.   s(28) = (     1          0          0      )
                  (     1          0         -1      )
                  (     1         -1          0      )

 cart.    s(28) = ( -1.0000000 -0.0000000  0.0000000 )
                  (  0.0000000  1.0000000  0.0000000 )
                  (  0.0000000  0.0000000  1.0000000 )


      isym = 29     inv. 180 deg rotation - cart. axis [1,1,0]   

 cryst.   s(29) = (     1          0         -1      )
                  (     0          1         -1      )
                  (     0          0         -1      )

 cart.    s(29) = (  0.0000000 -1.0000000  0.0000000 )
                  ( -1.0000000  0.0000000  0.0000000 )
                  ( -0.0000000  0.0000000  1.0000000 )


      isym = 30     inv. 180 deg rotation - cart. axis [1,-1,0]  

 cryst.   s(30) = (     0          1          0      )
                  (     1          0          0      )
                  (     0          0          1      )

 cart.    s(30) = ( -0.0000000  1.0000000  0.0000000 )
                  (  1.0000000 -0.0000000  0.0000000 )
                  (  0.0000000 -0.0000000  1.0000000 )


      isym = 31     inv.  90 deg rotation - cart. axis [0,0,-1]  

 cryst.   s(31) = (     0         -1          0      )
                  (     0         -1          1      )
                  (     1         -1          0      )

 cart.    s(31) = ( -0.0000000 -1.0000000 -0.0000000 )
                  (  1.0000000  0.0000000 -0.0000000 )
                  (  0.0000000  0.0000000 -1.0000000 )


      isym = 32     inv.  90 deg rotation - cart. axis [0,0,1]   

 cryst.   s(32) = (    -1          0          1      )
                  (    -1          0          0      )
                  (    -1          1          0      )

 cart.    s(32) = (  0.0000000  1.0000000 -0.0000000 )
                  ( -1.0000000 -0.0000000 -0.0000000 )
                  ( -0.0000000 -0.0000000 -1.0000000 )


      isym = 33     inv. 180 deg rotation - cart. axis [1,0,1]   

 cryst.   s(33) = (     1         -1          0      )
                  (     0         -1          0      )
                  (     0         -1          1      )

 cart.    s(33) = ( -0.0000000 -0.0000000 -1.0000000 )
                  ( -0.0000000  1.0000000  0.0000000 )
                  ( -1.0000000  0.0000000  0.0000000 )


      isym = 34     inv. 180 deg rotation - cart. axis [-1,0,1]  

 cryst.   s(34) = (     0          0          1      )
                  (     0          1          0      )
                  (     1          0          0      )

 cart.    s(34) = (  0.0000000 -0.0000000  1.0000000 )
                  (  0.0000000  1.0000000 -0.0000000 )
                  (  1.0000000  0.0000000 -0.0000000 )


      isym = 35     inv.  90 deg rotation - cart. axis [0,1,0]   

 cryst.   s(35) = (     0          0         -1      )
                  (     1          0         -1      )
                  (     0          1         -1      )

 cart.    s(35) = (  0.0000000  0.0000000 -1.0000000 )
                  (  0.0000000 -1.0000000  0.0000000 )
                  (  1.0000000 -0.0000000  0.0000000 )


      isym = 36     inv.  90 deg rotation - cart. axis [0,-1,0]  

 cryst.   s(36) = (    -1          1          0      )
                  (    -1          0          1      )
                  (    -1          0          0      )

 cart.    s(36) = ( -0.0000000  0.0000000  1.0000000 )
                  ( -0.0000000 -1.0000000 -0.0000000 )
                  ( -1.0000000 -0.0000000 -0.0000000 )


      isym = 37     inv. 180 deg rotation - cart. axis [0,1,1]   

 cryst.   s(37) = (    -1          0          0      )
                  (    -1          1          0      )
                  (    -1          0          1      )

 cart.    s(37) = (  1.0000000 -0.0000000  0.0000000 )
                  ( -0.0000000 -0.0000000 -1.0000000 )
                  ( -0.0000000 -1.0000000 -0.0000000 )


      isym = 38     inv. 180 deg rotation - cart. axis [0,1,-1]  

 cryst.   s(38) = (     1          0          0      )
                  (     0          0          1      )
                  (     0          1          0      )

 cart.    s(38) = (  1.0000000  0.0000000 -0.0000000 )
                  ( -0.0000000  0.0000000  1.0000000 )
                  ( -0.0000000  1.0000000  0.0000000 )


      isym = 39     inv.  90 deg rotation - cart. axis [-1,0,0]  

 cryst.   s(39) = (     0          1         -1      )
                  (     0          0         -1      )
                  (     1          0         -1      )

 cart.    s(39) = ( -1.0000000  0.0000000  0.0000000 )
                  (  0.0000000  0.0000000 -1.0000000 )
                  (  0.0000000  1.0000000 -0.0000000 )


      isym = 40     inv.  90 deg rotation - cart. axis [1,0,0]   

 cryst.   s(40) = (     0         -1          1      )
                  (     1         -1          0      )
                  (     0         -1          0      )

 cart.    s(40) = ( -1.0000000 -0.0000000 -0.0000000 )
                  (  0.0000000 -0.0000000  1.0000000 )
                  (  0.0000000 -1.0000000  0.0000000 )


      isym = 41     inv. 120 deg rotation - cart. axis [-1,-1,-1]

 cryst.   s(41) = (     0          0         -1      )
                  (    -1          0          0      )
                  (     0         -1          0      )

 cart.    s(41) = ( -0.0000000 -1.0000000  0.0000000 )
                  ( -0.0000000  0.0000000 -1.0000000 )
                  ( -1.0000000  0.0000000 -0.0000000 )


      isym = 42     inv. 120 deg rotation - cart. axis [-1,1,1]  

 cryst.   s(42) = (    -1          1          0      )
                  (     0          1         -1      )
                  (     0          1          0      )

 cart.    s(42) = (  0.0000000  1.0000000  0.0000000 )
                  (  0.0000000 -0.0000000 -1.0000000 )
                  (  1.0000000 -0.0000000 -0.0000000 )


      isym = 43     inv. 120 deg rotation - cart. axis [1,1,-1]  

 cryst.   s(43) = (     1         -1          0      )
                  (     1          0          0      )
                  (     1          0         -1      )

 cart.    s(43) = (  0.0000000 -1.0000000 -0.0000000 )
                  (  0.0000000  0.0000000  1.0000000 )
                  (  1.0000000  0.0000000  0.0000000 )


      isym = 44     inv. 120 deg rotation - cart. axis [1,-1,1]  

 cryst.   s(44) = (     0          0          1      )
                  (     0         -1          1      )
                  (    -1          0          1      )

 cart.    s(44) = ( -0.0000000  1.0000000 -0.0000000 )
                  ( -0.0000000 -0.0000000  1.0000000 )
                  ( -1.0000000 -0.0000000  0.0000000 )


      isym = 45     inv. 120 deg rotation - cart. axis [1,1,1]   

 cryst.   s(45) = (     0         -1          0      )
                  (     0          0         -1      )
                  (    -1          0          0      )

 cart.    s(45) = (  0.0000000 -0.0000000 -1.0000000 )
                  ( -1.0000000 -0.0000000  0.0000000 )
                  ( -0.0000000 -1.0000000  0.0000000 )


      isym = 46     inv. 120 deg rotation - cart. axis [-1,1,-1] 

 cryst.   s(46) = (     1          0         -1      )
                  (     1         -1          0      )
                  (     1          0          0      )

 cart.    s(46) = ( -0.0000000  0.0000000 -1.0000000 )
                  (  1.0000000  0.0000000  0.0000000 )
                  (  0.0000000  1.0000000  0.0000000 )


      isym = 47     inv. 120 deg rotation - cart. axis [1,-1,-1] 

 cryst.   s(47) = (    -1          0          1      )
                  (     0          0          1      )
                  (     0         -1          1      )

 cart.    s(47) = ( -0.0000000 -0.0000000  1.0000000 )
                  (  1.0000000 -0.0000000 -0.0000000 )
                  (  0.0000000 -1.0000000 -0.0000000 )


      isym = 48     inv. 120 deg rotation - cart. axis [-1,-1,1] 

 cryst.   s(48) = (     0          1          0      )
                  (    -1          1          0      )
                  (     0          1         -1      )

 cart.    s(48) = (  0.0000000  0.0000000  1.0000000 )
                  ( -1.0000000  0.0000000 -0.0000000 )
                  ( -0.0000000  1.0000000 -0.0000000 )


   Cartesian axes

     site n.     atom                  positions (alat units)
         1           Cr  tau(   1) = (   0.7071068   0.0000000   0.0000000  )
         2           Fe  tau(   2) = (   0.3535534   0.3535534   1.0606602  )
         3           Fe  tau(   3) = (   0.3535534   1.0606602   1.0606602  )
         4           Sn  tau(   4) = (   0.0000000   0.0000000   0.0000000  )

   Crystallographic axes

     site n.     atom                  positions (cryst. coord.)
         1           Cr  tau(   1) = ( -0.5000000  0.5000000  0.5000000  )
         2           Fe  tau(   2) = (  0.7500000  0.7500000 -0.2500000  )
         3           Fe  tau(   3) = (  1.2500000  0.2500000  0.2500000  )
         4           Sn  tau(   4) = (  0.0000000  0.0000000  0.0000000  )

     number of k points=    84  Marzari-Vanderbilt smearing, width (Ry)=  0.0100
                       cart. coord. in units 2pi/alat
        k(    1) = (   0.0000000   0.0000000   0.0000000), wk =   0.0004552
        k(    2) = (   0.0543928   0.0543928  -0.0543928), wk =   0.0036413
        k(    3) = (   0.1087857   0.1087857  -0.1087857), wk =   0.0036413
        k(    4) = (   0.1631785   0.1631785  -0.1631785), wk =   0.0036413
        k(    5) = (   0.2175713   0.2175713  -0.2175713), wk =   0.0036413
        k(    6) = (   0.2719641   0.2719641  -0.2719641), wk =   0.0036413
        k(    7) = (   0.3263570   0.3263570  -0.3263570), wk =   0.0036413
        k(    8) = (   0.1087857  -0.0000000   0.0000000), wk =   0.0027310
        k(    9) = (   0.1631785   0.0543928  -0.0543928), wk =   0.0109240
        k(   10) = (   0.2175713   0.1087857  -0.1087857), wk =   0.0109240
        k(   11) = (   0.2719641   0.1631785  -0.1631785), wk =   0.0109240
        k(   12) = (   0.3263570   0.2175713  -0.2175713), wk =   0.0109240
        k(   13) = (   0.3807498   0.2719641  -0.2719641), wk =   0.0109240
        k(   14) = (  -0.2719641  -0.3807498   0.3807498), wk =   0.0109240
        k(   15) = (  -0.2175713  -0.3263570   0.3263570), wk =   0.0109240
        k(   16) = (  -0.1631785  -0.2719641   0.2719641), wk =   0.0109240
        k(   17) = (  -0.1087857  -0.2175713   0.2175713), wk =   0.0109240
        k(   18) = (  -0.0543928  -0.1631785   0.1631785), wk =   0.0109240
        k(   19) = (   0.0000000  -0.1087857   0.1087857), wk =   0.0054620
        k(   20) = (   0.2175713  -0.0000000   0.0000000), wk =   0.0027310
        k(   21) = (   0.2719641   0.0543928  -0.0543928), wk =   0.0109240
        k(   22) = (   0.3263570   0.1087857  -0.1087857), wk =   0.0109240
        k(   23) = (   0.3807498   0.1631785  -0.1631785), wk =   0.0109240
        k(   24) = (   0.4351426   0.2175713  -0.2175713), wk =   0.0109240
        k(   25) = (  -0.2175713  -0.4351426   0.4351426), wk =   0.0109240
        k(   26) = (  -0.1631785  -0.3807498   0.3807498), wk =   0.0109240
        k(   27) = (  -0.1087857  -0.3263570   0.3263570), wk =   0.0109240
        k(   28) = (  -0.0543928  -0.2719641   0.2719641), wk =   0.0109240
        k(   29) = (   0.0000000  -0.2175713   0.2175713), wk =   0.0054620
        k(   30) = (   0.3263570  -0.0000000   0.0000000), wk =   0.0027310
        k(   31) = (   0.3807498   0.0543928  -0.0543928), wk =   0.0109240
        k(   32) = (   0.4351426   0.1087857  -0.1087857), wk =   0.0109240
        k(   33) = (   0.4895355   0.1631785  -0.1631785), wk =   0.0109240
        k(   34) = (  -0.1631785  -0.4895355   0.4895355), wk =   0.0109240
        k(   35) = (  -0.1087857  -0.4351426   0.4351426), wk =   0.0109240
        k(   36) = (  -0.0543928  -0.3807498   0.3807498), wk =   0.0109240
        k(   37) = (   0.0000000  -0.3263570   0.3263570), wk =   0.0054620
        k(   38) = (   0.4351426  -0.0000000   0.0000000), wk =   0.0027310
        k(   39) = (   0.4895355   0.0543928  -0.0543928), wk =   0.0109240
        k(   40) = (   0.5439283   0.1087857  -0.1087857), wk =   0.0109240
        k(   41) = (  -0.1087857  -0.5439283   0.5439283), wk =   0.0109240
        k(   42) = (  -0.0543928  -0.4895355   0.4895355), wk =   0.0109240
        k(   43) = (   0.0000000  -0.4351426   0.4351426), wk =   0.0054620
        k(   44) = (   0.5439283  -0.0000000   0.0000000), wk =   0.0027310
        k(   45) = (   0.5983211   0.0543928  -0.0543928), wk =   0.0109240
        k(   46) = (  -0.0543928  -0.5983211   0.5983211), wk =   0.0109240
        k(   47) = (   0.0000000  -0.5439283   0.5439283), wk =   0.0054620
        k(   48) = (   0.6527140  -0.0000000   0.0000000), wk =   0.0027310
        k(   49) = (   0.0000000  -0.6527140   0.6527140), wk =   0.0054620
        k(   50) = (   0.2175713   0.1087857   0.0000000), wk =   0.0109240
        k(   51) = (   0.2719641   0.1631785  -0.0543928), wk =   0.0218480
        k(   52) = (   0.3263570   0.2175713  -0.1087857), wk =   0.0218480
        k(   53) = (   0.3807498   0.2719641  -0.1631785), wk =   0.0218480
        k(   54) = (  -0.2719641  -0.3807498   0.4895355), wk =   0.0218480
        k(   55) = (   0.3263570   0.1087857   0.0000000), wk =   0.0109240
        k(   56) = (   0.3807498   0.1631785  -0.0543928), wk =   0.0218480
        k(   57) = (   0.4351426   0.2175713  -0.1087857), wk =   0.0218480
        k(   58) = (  -0.2175713  -0.4351426   0.5439283), wk =   0.0218480
        k(   59) = (  -0.1631785  -0.3807498   0.4895355), wk =   0.0218480
        k(   60) = (  -0.1087857  -0.3263570   0.4351426), wk =   0.0218480
        k(   61) = (  -0.0543928  -0.2719641   0.3807498), wk =   0.0218480
        k(   62) = (   0.0000000  -0.2175713   0.3263570), wk =   0.0109240
        k(   63) = (   0.4351426   0.1087857   0.0000000), wk =   0.0109240
        k(   64) = (   0.4895355   0.1631785  -0.0543928), wk =   0.0218480
        k(   65) = (  -0.1631785  -0.4895355   0.5983211), wk =   0.0218480
        k(   66) = (  -0.1087857  -0.4351426   0.5439283), wk =   0.0218480
        k(   67) = (  -0.0543928  -0.3807498   0.4895355), wk =   0.0218480
        k(   68) = (   0.0000000  -0.3263570   0.4351426), wk =   0.0109240
        k(   69) = (   0.5439283   0.1087857   0.0000000), wk =   0.0109240
        k(   70) = (  -0.1087857  -0.5439283   0.6527140), wk =   0.0218480
        k(   71) = (  -0.0543928  -0.4895355   0.5983211), wk =   0.0218480
        k(   72) = (   0.0000000  -0.4351426   0.5439283), wk =   0.0109240
        k(   73) = (  -0.0543928  -0.5983211   0.7071068), wk =   0.0109240
        k(   74) = (   0.0000000  -0.5439283   0.6527140), wk =   0.0109240
        k(   75) = (   0.4351426   0.2175713   0.0000000), wk =   0.0109240
        k(   76) = (  -0.2175713  -0.4351426   0.6527140), wk =   0.0218480
        k(   77) = (  -0.1631785  -0.3807498   0.5983211), wk =   0.0218480
        k(   78) = (  -0.1631785  -0.4895355   0.7071068), wk =   0.0109240
        k(   79) = (  -0.1087857  -0.4351426   0.6527140), wk =   0.0218480
        k(   80) = (  -0.0543928  -0.3807498   0.5983211), wk =   0.0218480
        k(   81) = (   0.0000000  -0.3263570   0.5439283), wk =   0.0109240
        k(   82) = (  -0.0543928  -0.4895355   0.7071068), wk =   0.0109240
        k(   83) = (   0.0000000  -0.4351426   0.6527140), wk =   0.0109240
        k(   84) = (  -0.0543928  -0.3807498   0.7071068), wk =   0.0109240

                       cryst. coord.
        k(    1) = (   0.0000000   0.0000000   0.0000000), wk =   0.0004552
        k(    2) = (   0.0000000   0.0000000   0.0769231), wk =   0.0036413
        k(    3) = (   0.0000000   0.0000000   0.1538462), wk =   0.0036413
        k(    4) = (   0.0000000   0.0000000   0.2307692), wk =   0.0036413
        k(    5) = (   0.0000000   0.0000000   0.3076923), wk =   0.0036413
        k(    6) = (   0.0000000   0.0000000   0.3846154), wk =   0.0036413
        k(    7) = (   0.0000000   0.0000000   0.4615385), wk =   0.0036413
        k(    8) = (  -0.0000000   0.0769231   0.0769231), wk =   0.0027310
        k(    9) = (  -0.0000000   0.0769231   0.1538462), wk =   0.0109240
        k(   10) = (   0.0000000   0.0769231   0.2307692), wk =   0.0109240
        k(   11) = (  -0.0000000   0.0769231   0.3076923), wk =   0.0109240
        k(   12) = (   0.0000000   0.0769231   0.3846154), wk =   0.0109240
        k(   13) = (   0.0000000   0.0769231   0.4615385), wk =   0.0109240
        k(   14) = (   0.0000000   0.0769231  -0.4615385), wk =   0.0109240
        k(   15) = (   0.0000000   0.0769231  -0.3846154), wk =   0.0109240
        k(   16) = (  -0.0000000   0.0769231  -0.3076923), wk =   0.0109240
        k(   17) = (  -0.0000000   0.0769231  -0.2307692), wk =   0.0109240
        k(   18) = (  -0.0000000   0.0769231  -0.1538462), wk =   0.0109240
        k(   19) = (  -0.0000000   0.0769231  -0.0769231), wk =   0.0054620
        k(   20) = (  -0.0000000   0.1538462   0.1538462), wk =   0.0027310
        k(   21) = (  -0.0000000   0.1538462   0.2307692), wk =   0.0109240
        k(   22) = (  -0.0000000   0.1538462   0.3076923), wk =   0.0109240
        k(   23) = (  -0.0000000   0.1538462   0.3846154), wk =   0.0109240
        k(   24) = (   0.0000000   0.1538462   0.4615385), wk =   0.0109240
        k(   25) = (  -0.0000000   0.1538462  -0.4615385), wk =   0.0109240
        k(   26) = (   0.0000000   0.1538462  -0.3846154), wk =   0.0109240
        k(   27) = (  -0.0000000   0.1538462  -0.3076923), wk =   0.0109240
        k(   28) = (  -0.0000000   0.1538462  -0.2307692), wk =   0.0109240
        k(   29) = (  -0.0000000   0.1538462  -0.1538462), wk =   0.0054620
        k(   30) = (   0.0000000   0.2307692   0.2307692), wk =   0.0027310
        k(   31) = (   0.0000000   0.2307692   0.3076923), wk =   0.0109240
        k(   32) = (  -0.0000000   0.2307692   0.3846154), wk =   0.0109240
        k(   33) = (  -0.0000000   0.2307692   0.4615385), wk =   0.0109240
        k(   34) = (  -0.0000000   0.2307692  -0.4615385), wk =   0.0109240
        k(   35) = (   0.0000000   0.2307692  -0.3846154), wk =   0.0109240
        k(   36) = (   0.0000000   0.2307692  -0.3076923), wk =   0.0109240
        k(   37) = (   0.0000000   0.2307692  -0.2307692), wk =   0.0054620
        k(   38) = (  -0.0000000   0.3076923   0.3076923), wk =   0.0027310
        k(   39) = (  -0.0000000   0.3076923   0.3846154), wk =   0.0109240
        k(   40) = (  -0.0000000   0.3076923   0.4615385), wk =   0.0109240
        k(   41) = (  -0.0000000   0.3076923  -0.4615385), wk =   0.0109240
        k(   42) = (   0.0000000   0.3076923  -0.3846154), wk =   0.0109240
        k(   43) = (  -0.0000000   0.3076923  -0.3076923), wk =   0.0054620
        k(   44) = (  -0.0000000   0.3846154   0.3846154), wk =   0.0027310
        k(   45) = (  -0.0000000   0.3846154   0.4615385), wk =   0.0109240
        k(   46) = (  -0.0000000   0.3846154  -0.4615385), wk =   0.0109240
        k(   47) = (  -0.0000000   0.3846154  -0.3846154), wk =   0.0054620
        k(   48) = (   0.0000000   0.4615385   0.4615385), wk =   0.0027310
        k(   49) = (  -0.0000000   0.4615385  -0.4615385), wk =   0.0054620
        k(   50) = (   0.0769231   0.1538462   0.2307692), wk =   0.0109240
        k(   51) = (   0.0769231   0.1538462   0.3076923), wk =   0.0218480
        k(   52) = (   0.0769231   0.1538462   0.3846154), wk =   0.0218480
        k(   53) = (   0.0769231   0.1538462   0.4615385), wk =   0.0218480
        k(   54) = (   0.0769231   0.1538462  -0.4615385), wk =   0.0218480
        k(   55) = (   0.0769231   0.2307692   0.3076923), wk =   0.0109240
        k(   56) = (   0.0769231   0.2307692   0.3846154), wk =   0.0218480
        k(   57) = (   0.0769231   0.2307692   0.4615385), wk =   0.0218480
        k(   58) = (   0.0769231   0.2307692  -0.4615385), wk =   0.0218480
        k(   59) = (   0.0769231   0.2307692  -0.3846154), wk =   0.0218480
        k(   60) = (   0.0769231   0.2307692  -0.3076923), wk =   0.0218480
        k(   61) = (   0.0769231   0.2307692  -0.2307692), wk =   0.0218480
        k(   62) = (   0.0769231   0.2307692  -0.1538462), wk =   0.0109240
        k(   63) = (   0.0769231   0.3076923   0.3846154), wk =   0.0109240
        k(   64) = (   0.0769231   0.3076923   0.4615385), wk =   0.0218480
        k(   65) = (   0.0769231   0.3076923  -0.4615385), wk =   0.0218480
        k(   66) = (   0.0769231   0.3076923  -0.3846154), wk =   0.0218480
        k(   67) = (   0.0769231   0.3076923  -0.3076923), wk =   0.0218480
        k(   68) = (   0.0769231   0.3076923  -0.2307692), wk =   0.0109240
        k(   69) = (   0.0769231   0.3846154   0.4615385), wk =   0.0109240
        k(   70) = (   0.0769231   0.3846154  -0.4615385), wk =   0.0218480
        k(   71) = (   0.0769231   0.3846154  -0.3846154), wk =   0.0218480
        k(   72) = (   0.0769231   0.3846154  -0.3076923), wk =   0.0109240
        k(   73) = (   0.0769231   0.4615385  -0.4615385), wk =   0.0109240
        k(   74) = (   0.0769231   0.4615385  -0.3846154), wk =   0.0109240
        k(   75) = (   0.1538462   0.3076923   0.4615385), wk =   0.0109240
        k(   76) = (   0.1538462   0.3076923  -0.4615385), wk =   0.0218480
        k(   77) = (   0.1538462   0.3076923  -0.3846154), wk =   0.0218480
        k(   78) = (   0.1538462   0.3846154  -0.4615385), wk =   0.0109240
        k(   79) = (   0.1538462   0.3846154  -0.3846154), wk =   0.0218480
        k(   80) = (   0.1538462   0.3846154  -0.3076923), wk =   0.0218480
        k(   81) = (   0.1538462   0.3846154  -0.2307692), wk =   0.0109240
        k(   82) = (   0.1538462   0.4615385  -0.3846154), wk =   0.0109240
        k(   83) = (   0.1538462   0.4615385  -0.3076923), wk =   0.0109240
        k(   84) = (   0.2307692   0.4615385  -0.3076923), wk =   0.0109240

     Dense  grid:   215583 G-vectors     FFT dimensions: (  90,  90,  90)

     Smooth grid:    41391 G-vectors     FFT dimensions: (  50,  50,  50)

     Dynamical RAM for                 wfc:       2.85 MB

     Dynamical RAM for     wfc (w. buffer):     481.44 MB

     Dynamical RAM for           str. fact:       9.87 MB

     Dynamical RAM for           local pot:       0.00 MB

     Dynamical RAM for          nlocal pot:       5.70 MB

     Dynamical RAM for                qrad:       7.91 MB

     Dynamical RAM for          rho,v,vnew:      53.11 MB

     Dynamical RAM for               rhoin:      17.70 MB

     Dynamical RAM for            rho*nmix:     105.27 MB

     Dynamical RAM for           G-vectors:      12.65 MB

     Dynamical RAM for          h,s,v(r/c):       0.24 MB

     Dynamical RAM for          <psi|beta>:       0.04 MB

     Dynamical RAM for                 psi:       5.70 MB

     Dynamical RAM for                hpsi:       5.70 MB

     Dynamical RAM for                spsi:       5.70 MB

     Dynamical RAM for      wfcinit/wfcrot:       7.17 MB

     Dynamical RAM for           addusdens:     621.72 MB

     Dynamical RAM for          addusforce:     628.32 MB

     Dynamical RAM for         addusstress:     666.13 MB

     Estimated static dynamical RAM per process >     634.90 MB

     Estimated max dynamical RAM per process >       1.37 GB

     Check: negative core charge=   -0.000005
     Generating pointlists ...
     new r_m :   0.2526 (alat units)  2.0165 (a.u.) for type    1
     new r_m :   0.2526 (alat units)  2.0165 (a.u.) for type    2
     new r_m :   0.2526 (alat units)  2.0165 (a.u.) for type    3

     Initial potential from superposition of free atoms

     starting charge      57.9991, renormalised to      60.0000

     negative rho (up, down):  5.177E-04 2.438E-04
     Starting wfcs are   45 randomized atomic wfcs
     Checking if some PAW data can be deallocated... 

     total cpu time spent up to now is        8.0 secs

     per-process dynamical memory:  1303.2 Mb

     Self-consistent Calculation
[tb_dev] Currently allocated     7.83E+00 Mbytes, locked:    0 /  18
[tb_pin] Currently allocated     0.00E+00 Mbytes, locked:    0 /   0

     iteration #  1     ecut=    90.00 Ry     beta= 0.40
     Davidson diagonalization with overlap

---- Real-time Memory Report at c_bands before calling an iterative solver
          1609 MiB given to the printing process from OS
          1291 MiB allocation reported by mallinfo(arena+hblkhd)
         57663 MiB available memory on the node where the printing process lives
     GPU memory used/free/total (MiB): 1072 / 15208 / 16280
------------------
     ethr =  1.00E-02,  avg # of iterations =  2.5

     negative rho (up, down):  1.867E-05 4.116E-04

     total cpu time spent up to now is       14.0 secs

     total energy              =    -983.79007748 Ry
     estimated scf accuracy    <       9.38983830 Ry

     total magnetization       =     8.04 Bohr mag/cell
     absolute magnetization    =     8.19 Bohr mag/cell
[tb_dev] Currently allocated     7.83E+00 Mbytes, locked:    0 /  16
[tb_pin] Currently allocated     0.00E+00 Mbytes, locked:    0 /   0

     iteration #  2     ecut=    90.00 Ry     beta= 0.40
     Davidson diagonalization with overlap

---- Real-time Memory Report at c_bands before calling an iterative solver
          1774 MiB given to the printing process from OS
          1332 MiB allocation reported by mallinfo(arena+hblkhd)
         57630 MiB available memory on the node where the printing process lives
     GPU memory used/free/total (MiB): 1746 / 14534 / 16280
------------------
     ethr =  1.00E-02,  avg # of iterations =  4.5

     negative rho (up, down):  4.117E-05 6.769E-04

     total cpu time spent up to now is       22.0 secs

     total energy              =    -986.66492715 Ry
     estimated scf accuracy    <      36.36914301 Ry

     total magnetization       =     0.72 Bohr mag/cell
     absolute magnetization    =     0.87 Bohr mag/cell
[tb_dev] Currently allocated     7.83E+00 Mbytes, locked:    0 /  16
[tb_pin] Currently allocated     0.00E+00 Mbytes, locked:    0 /   0

     iteration #  3     ecut=    90.00 Ry     beta= 0.40
     Davidson diagonalization with overlap

---- Real-time Memory Report at c_bands before calling an iterative solver
          1910 MiB given to the printing process from OS
          1339 MiB allocation reported by mallinfo(arena+hblkhd)
         57624 MiB available memory on the node where the printing process lives
     GPU memory used/free/total (MiB): 1876 / 14404 / 16280
------------------
     ethr =  1.00E-02,  avg # of iterations =  2.1

     negative rho (up, down):  4.352E-05 7.084E-04

     total cpu time spent up to now is       27.7 secs

     total energy              =    -988.02702683 Ry
     estimated scf accuracy    <       8.12205346 Ry

     total magnetization       =     2.46 Bohr mag/cell
     absolute magnetization    =     2.93 Bohr mag/cell
[tb_dev] Currently allocated     7.83E+00 Mbytes, locked:    0 /  16
[tb_pin] Currently allocated     0.00E+00 Mbytes, locked:    0 /   0

     iteration #  4     ecut=    90.00 Ry     beta= 0.40
     Davidson diagonalization with overlap

---- Real-time Memory Report at c_bands before calling an iterative solver
          2045 MiB given to the printing process from OS
          1347 MiB allocation reported by mallinfo(arena+hblkhd)
         57616 MiB available memory on the node where the printing process lives
     GPU memory used/free/total (MiB): 1906 / 14374 / 16280
------------------
     ethr =  1.00E-02,  avg # of iterations =  1.3

     negative rho (up, down):  3.892E-05 1.179E-03

     total cpu time spent up to now is       32.6 secs

     total energy              =    -987.37533554 Ry
     estimated scf accuracy    <       6.06395071 Ry

     total magnetization       =     2.85 Bohr mag/cell
     absolute magnetization    =     3.32 Bohr mag/cell
[tb_dev] Currently allocated     7.83E+00 Mbytes, locked:    0 /  16
[tb_pin] Currently allocated     0.00E+00 Mbytes, locked:    0 /   0

     iteration #  5     ecut=    90.00 Ry     beta= 0.40
     Davidson diagonalization with overlap

---- Real-time Memory Report at c_bands before calling an iterative solver
          2094 MiB given to the printing process from OS
          1354 MiB allocation reported by mallinfo(arena+hblkhd)
         57605 MiB available memory on the node where the printing process lives
     GPU memory used/free/total (MiB): 1906 / 14374 / 16280
------------------
     ethr =  1.00E-02,  avg # of iterations =  3.0

     negative rho (up, down):  3.434E-05 1.166E-03

     total cpu time spent up to now is       38.8 secs

     total energy              =    -988.30069556 Ry
     estimated scf accuracy    <       3.36125828 Ry

     total magnetization       =     7.72 Bohr mag/cell
     absolute magnetization    =     8.02 Bohr mag/cell
[tb_dev] Currently allocated     7.83E+00 Mbytes, locked:    0 /  16
[tb_pin] Currently allocated     0.00E+00 Mbytes, locked:    0 /   0

     iteration #  6     ecut=    90.00 Ry     beta= 0.40
     Davidson diagonalization with overlap

---- Real-time Memory Report at c_bands before calling an iterative solver
          2143 MiB given to the printing process from OS
          1363 MiB allocation reported by mallinfo(arena+hblkhd)
         57601 MiB available memory on the node where the printing process lives
     GPU memory used/free/total (MiB): 1906 / 14374 / 16280
------------------
     ethr =  5.60E-03,  avg # of iterations =  1.9

     negative rho (up, down):  3.669E-05 1.475E-03

     total cpu time spent up to now is       44.0 secs

     total energy              =    -988.75551650 Ry
     estimated scf accuracy    <       7.49384396 Ry

     total magnetization       =     7.61 Bohr mag/cell
     absolute magnetization    =     7.82 Bohr mag/cell
[tb_dev] Currently allocated     7.83E+00 Mbytes, locked:    0 /  16
[tb_pin] Currently allocated     0.00E+00 Mbytes, locked:    0 /   0

     iteration #  7     ecut=    90.00 Ry     beta= 0.40
     Davidson diagonalization with overlap

---- Real-time Memory Report at c_bands before calling an iterative solver
          2191 MiB given to the printing process from OS
          1370 MiB allocation reported by mallinfo(arena+hblkhd)
         57585 MiB available memory on the node where the printing process lives
     GPU memory used/free/total (MiB): 1906 / 14374 / 16280
------------------
     ethr =  5.60E-03,  avg # of iterations =  1.4

     negative rho (up, down):  1.645E-05 1.028E-03

     total cpu time spent up to now is       49.0 secs

     total energy              =    -987.37336482 Ry
     estimated scf accuracy    <      13.02193687 Ry

     total magnetization       =     7.25 Bohr mag/cell
     absolute magnetization    =     7.46 Bohr mag/cell
[tb_dev] Currently allocated     7.83E+00 Mbytes, locked:    0 /  16
[tb_pin] Currently allocated     0.00E+00 Mbytes, locked:    0 /   0

     iteration #  8     ecut=    90.00 Ry     beta= 0.40
     Davidson diagonalization with overlap

---- Real-time Memory Report at c_bands before calling an iterative solver
          2238 MiB given to the printing process from OS
          1378 MiB allocation reported by mallinfo(arena+hblkhd)
         57582 MiB available memory on the node where the printing process lives
     GPU memory used/free/total (MiB): 1906 / 14374 / 16280
------------------
     ethr =  5.60E-03,  avg # of iterations =  1.6

     negative rho (up, down):  1.930E-05 1.218E-03

     total cpu time spent up to now is       54.2 secs

     total energy              =    -988.01807658 Ry
     estimated scf accuracy    <       0.23613176 Ry

     total magnetization       =     4.30 Bohr mag/cell
     absolute magnetization    =     4.79 Bohr mag/cell
[tb_dev] Currently allocated     7.83E+00 Mbytes, locked:    0 /  16
[tb_pin] Currently allocated     0.00E+00 Mbytes, locked:    0 /   0

     iteration #  9     ecut=    90.00 Ry     beta= 0.40
     Davidson diagonalization with overlap

---- Real-time Memory Report at c_bands before calling an iterative solver
          2278 MiB given to the printing process from OS
          1385 MiB allocation reported by mallinfo(arena+hblkhd)
         57575 MiB available memory on the node where the printing process lives
     GPU memory used/free/total (MiB): 1906 / 14374 / 16280
------------------
     ethr =  3.94E-04,  avg # of iterations =  2.2

     negative rho (up, down):  1.710E-05 1.271E-03

     total cpu time spent up to now is       59.7 secs

     total energy              =    -988.08120806 Ry
     estimated scf accuracy    <       1.12407128 Ry

     total magnetization       =     6.40 Bohr mag/cell
     absolute magnetization    =     6.68 Bohr mag/cell
[tb_dev] Currently allocated     7.83E+00 Mbytes, locked:    0 /  16
[tb_pin] Currently allocated     0.00E+00 Mbytes, locked:    0 /   0

     iteration # 10     ecut=    90.00 Ry     beta= 0.40
     Davidson diagonalization with overlap

---- Real-time Memory Report at c_bands before calling an iterative solver
          2307 MiB given to the printing process from OS
          1393 MiB allocation reported by mallinfo(arena+hblkhd)
         57571 MiB available memory on the node where the printing process lives
     GPU memory used/free/total (MiB): 1906 / 14374 / 16280
------------------
     ethr =  3.94E-04,  avg # of iterations =  1.1

     negative rho (up, down):  7.250E-06 1.447E-03

     total cpu time spent up to now is       64.5 secs

     total energy              =    -988.06877132 Ry
     estimated scf accuracy    <       0.59630371 Ry

     total magnetization       =     6.06 Bohr mag/cell
     absolute magnetization    =     6.38 Bohr mag/cell
[tb_dev] Currently allocated     7.83E+00 Mbytes, locked:    0 /  16
[tb_pin] Currently allocated     0.00E+00 Mbytes, locked:    0 /   0

     iteration # 11     ecut=    90.00 Ry     beta= 0.40
     Davidson diagonalization with overlap

---- Real-time Memory Report at c_bands before calling an iterative solver
          2311 MiB given to the printing process from OS
          1397 MiB allocation reported by mallinfo(arena+hblkhd)
         57564 MiB available memory on the node where the printing process lives
     GPU memory used/free/total (MiB): 1906 / 14374 / 16280
------------------
     ethr =  3.94E-04,  avg # of iterations =  1.2

     negative rho (up, down):  0.000E+00 1.917E-03

     total cpu time spent up to now is       69.4 secs

     total energy              =    -988.04644516 Ry
     estimated scf accuracy    <       0.27467951 Ry

     total magnetization       =     5.35 Bohr mag/cell
     absolute magnetization    =     5.73 Bohr mag/cell
[tb_dev] Currently allocated     7.83E+00 Mbytes, locked:    0 /  16
[tb_pin] Currently allocated     0.00E+00 Mbytes, locked:    0 /   0

     iteration # 12     ecut=    90.00 Ry     beta= 0.40
     Davidson diagonalization with overlap

---- Real-time Memory Report at c_bands before calling an iterative solver
          2315 MiB given to the printing process from OS
          1400 MiB allocation reported by mallinfo(arena+hblkhd)
         57562 MiB available memory on the node where the printing process lives
     GPU memory used/free/total (MiB): 1906 / 14374 / 16280
------------------
     ethr =  3.94E-04,  avg # of iterations =  1.2

     negative rho (up, down):  4.255E-06 1.748E-03

     total cpu time spent up to now is       74.3 secs

     total energy              =    -988.06969126 Ry
     estimated scf accuracy    <       0.13029052 Ry

     total magnetization       =     4.16 Bohr mag/cell
     absolute magnetization    =     4.65 Bohr mag/cell
[tb_dev] Currently allocated     7.83E+00 Mbytes, locked:    0 /  16
[tb_pin] Currently allocated     0.00E+00 Mbytes, locked:    0 /   0

     iteration # 13     ecut=    90.00 Ry     beta= 0.40
     Davidson diagonalization with overlap

---- Real-time Memory Report at c_bands before calling an iterative solver
          2318 MiB given to the printing process from OS
          1404 MiB allocation reported by mallinfo(arena+hblkhd)
         57561 MiB available memory on the node where the printing process lives
     GPU memory used/free/total (MiB): 1906 / 14374 / 16280
------------------
     ethr =  2.17E-04,  avg # of iterations =  1.0

     negative rho (up, down):  7.309E-06 1.597E-03

     total cpu time spent up to now is       79.0 secs

     total energy              =    -988.07023556 Ry
     estimated scf accuracy    <       0.09444787 Ry

     total magnetization       =     4.30 Bohr mag/cell
     absolute magnetization    =     4.77 Bohr mag/cell
[tb_dev] Currently allocated     7.83E+00 Mbytes, locked:    0 /  16
[tb_pin] Currently allocated     0.00E+00 Mbytes, locked:    0 /   0

     iteration # 14     ecut=    90.00 Ry     beta= 0.40
     Davidson diagonalization with overlap

---- Real-time Memory Report at c_bands before calling an iterative solver
          2322 MiB given to the printing process from OS
          1408 MiB allocation reported by mallinfo(arena+hblkhd)
         57558 MiB available memory on the node where the printing process lives
     GPU memory used/free/total (MiB): 1906 / 14374 / 16280
------------------
     ethr =  1.57E-04,  avg # of iterations =  1.0

     negative rho (up, down):  1.216E-05 1.359E-03

     total cpu time spent up to now is       83.8 secs

     total energy              =    -988.07361080 Ry
     estimated scf accuracy    <       0.01025573 Ry

     total magnetization       =     4.40 Bohr mag/cell
     absolute magnetization    =     4.85 Bohr mag/cell
[tb_dev] Currently allocated     7.83E+00 Mbytes, locked:    0 /  16
[tb_pin] Currently allocated     0.00E+00 Mbytes, locked:    0 /   0

     iteration # 15     ecut=    90.00 Ry     beta= 0.40
     Davidson diagonalization with overlap

---- Real-time Memory Report at c_bands before calling an iterative solver
          2326 MiB given to the printing process from OS
          1411 MiB allocation reported by mallinfo(arena+hblkhd)
         57551 MiB available memory on the node where the printing process lives
     GPU memory used/free/total (MiB): 1906 / 14374 / 16280
------------------
     ethr =  1.71E-05,  avg # of iterations =  1.8

     negative rho (up, down):  2.507E-05 1.104E-03

     total cpu time spent up to now is       88.9 secs

     total energy              =    -988.07344650 Ry
     estimated scf accuracy    <       0.01386602 Ry

     total magnetization       =     4.25 Bohr mag/cell
     absolute magnetization    =     4.68 Bohr mag/cell
[tb_dev] Currently allocated     7.83E+00 Mbytes, locked:    0 /  16
[tb_pin] Currently allocated     0.00E+00 Mbytes, locked:    0 /   0

     iteration # 16     ecut=    90.00 Ry     beta= 0.40
     Davidson diagonalization with overlap

---- Real-time Memory Report at c_bands before calling an iterative solver
          2330 MiB given to the printing process from OS
          1420 MiB allocation reported by mallinfo(arena+hblkhd)
         57543 MiB available memory on the node where the printing process lives
     GPU memory used/free/total (MiB): 1906 / 14374 / 16280
------------------
     ethr =  1.71E-05,  avg # of iterations =  2.1

     negative rho (up, down):  2.849E-05 1.064E-03

     total cpu time spent up to now is       94.4 secs

     total energy              =    -988.07595023 Ry
     estimated scf accuracy    <       0.00166039 Ry

     total magnetization       =     3.90 Bohr mag/cell
     absolute magnetization    =     4.30 Bohr mag/cell
[tb_dev] Currently allocated     7.83E+00 Mbytes, locked:    0 /  16
[tb_pin] Currently allocated     0.00E+00 Mbytes, locked:    0 /   0

     iteration # 17     ecut=    90.00 Ry     beta= 0.40
     Davidson diagonalization with overlap

---- Real-time Memory Report at c_bands before calling an iterative solver
          2334 MiB given to the printing process from OS
          1424 MiB allocation reported by mallinfo(arena+hblkhd)
         57540 MiB available memory on the node where the printing process lives
     GPU memory used/free/total (MiB): 1906 / 14374 / 16280
------------------
     ethr =  2.77E-06,  avg # of iterations =  4.9

     negative rho (up, down):  3.289E-05 9.990E-04

     total cpu time spent up to now is      101.7 secs

     total energy              =    -988.07596390 Ry
     estimated scf accuracy    <       0.00035471 Ry

     total magnetization       =     3.85 Bohr mag/cell
     absolute magnetization    =     4.23 Bohr mag/cell
[tb_dev] Currently allocated     7.83E+00 Mbytes, locked:    0 /  16
[tb_pin] Currently allocated     0.00E+00 Mbytes, locked:    0 /   0

     iteration # 18     ecut=    90.00 Ry     beta= 0.40
     Davidson diagonalization with overlap

---- Real-time Memory Report at c_bands before calling an iterative solver
          2339 MiB given to the printing process from OS
          1422 MiB allocation reported by mallinfo(arena+hblkhd)
         57544 MiB available memory on the node where the printing process lives
     GPU memory used/free/total (MiB): 1906 / 14374 / 16280
------------------
     ethr =  5.91E-07,  avg # of iterations =  4.9

     negative rho (up, down):  3.156E-05 1.019E-03

     total cpu time spent up to now is      109.7 secs

     total energy              =    -988.07627122 Ry
     estimated scf accuracy    <       0.00043458 Ry

     total magnetization       =     3.74 Bohr mag/cell
     absolute magnetization    =     4.09 Bohr mag/cell
[tb_dev] Currently allocated     7.83E+00 Mbytes, locked:    0 /  16
[tb_pin] Currently allocated     0.00E+00 Mbytes, locked:    0 /   0

     iteration # 19     ecut=    90.00 Ry     beta= 0.40
     Davidson diagonalization with overlap

---- Real-time Memory Report at c_bands before calling an iterative solver
          2343 MiB given to the printing process from OS
          1426 MiB allocation reported by mallinfo(arena+hblkhd)
         57541 MiB available memory on the node where the printing process lives
     GPU memory used/free/total (MiB): 1906 / 14374 / 16280
------------------
     ethr =  5.91E-07,  avg # of iterations =  1.2

     negative rho (up, down):  3.197E-05 1.013E-03

     total cpu time spent up to now is      114.6 secs

     total energy              =    -988.07629286 Ry
     estimated scf accuracy    <       0.00002440 Ry

     total magnetization       =     3.75 Bohr mag/cell
     absolute magnetization    =     4.10 Bohr mag/cell
[tb_dev] Currently allocated     7.83E+00 Mbytes, locked:    0 /  16
[tb_pin] Currently allocated     0.00E+00 Mbytes, locked:    0 /   0

     iteration # 20     ecut=    90.00 Ry     beta= 0.40
     Davidson diagonalization with overlap

---- Real-time Memory Report at c_bands before calling an iterative solver
          2347 MiB given to the printing process from OS
          1429 MiB allocation reported by mallinfo(arena+hblkhd)
         57536 MiB available memory on the node where the printing process lives
     GPU memory used/free/total (MiB): 1906 / 14374 / 16280
------------------
     ethr =  4.07E-08,  avg # of iterations =  5.0

     negative rho (up, down):  3.115E-05 1.025E-03

     total cpu time spent up to now is      122.8 secs

     total energy              =    -988.07634697 Ry
     estimated scf accuracy    <       0.00004902 Ry

     total magnetization       =     3.71 Bohr mag/cell
     absolute magnetization    =     4.05 Bohr mag/cell
[tb_dev] Currently allocated     7.83E+00 Mbytes, locked:    0 /  16
[tb_pin] Currently allocated     0.00E+00 Mbytes, locked:    0 /   0

     iteration # 21     ecut=    90.00 Ry     beta= 0.40
     Davidson diagonalization with overlap

---- Real-time Memory Report at c_bands before calling an iterative solver
          2350 MiB given to the printing process from OS
          1439 MiB allocation reported by mallinfo(arena+hblkhd)
         57530 MiB available memory on the node where the printing process lives
     GPU memory used/free/total (MiB): 1906 / 14374 / 16280
------------------
     ethr =  4.07E-08,  avg # of iterations =  1.7

     negative rho (up, down):  3.131E-05 1.024E-03

     total cpu time spent up to now is      128.0 secs

     total energy              =    -988.07634487 Ry
     estimated scf accuracy    <       0.00001302 Ry

     total magnetization       =     3.71 Bohr mag/cell
     absolute magnetization    =     4.06 Bohr mag/cell
[tb_dev] Currently allocated     7.83E+00 Mbytes, locked:    0 /  16
[tb_pin] Currently allocated     0.00E+00 Mbytes, locked:    0 /   0

     iteration # 22     ecut=    90.00 Ry     beta= 0.40
     Davidson diagonalization with overlap

---- Real-time Memory Report at c_bands before calling an iterative solver
          2354 MiB given to the printing process from OS
          1442 MiB allocation reported by mallinfo(arena+hblkhd)
         57524 MiB available memory on the node where the printing process lives
     GPU memory used/free/total (MiB): 1906 / 14374 / 16280
------------------
     ethr =  2.17E-08,  avg # of iterations =  4.4

     negative rho (up, down):  3.186E-05 1.015E-03

     total cpu time spent up to now is      135.4 secs

     total energy              =    -988.07634982 Ry
     estimated scf accuracy    <       0.00002303 Ry

     total magnetization       =     3.68 Bohr mag/cell
     absolute magnetization    =     4.02 Bohr mag/cell
[tb_dev] Currently allocated     7.83E+00 Mbytes, locked:    0 /  16
[tb_pin] Currently allocated     0.00E+00 Mbytes, locked:    0 /   0

     iteration # 23     ecut=    90.00 Ry     beta= 0.40
     Davidson diagonalization with overlap

---- Real-time Memory Report at c_bands before calling an iterative solver
          2357 MiB given to the printing process from OS
          1446 MiB allocation reported by mallinfo(arena+hblkhd)
         57520 MiB available memory on the node where the printing process lives
     GPU memory used/free/total (MiB): 1906 / 14374 / 16280
------------------
     ethr =  2.17E-08,  avg # of iterations =  2.1

     negative rho (up, down):  3.133E-05 1.025E-03

     total cpu time spent up to now is      140.9 secs

     total energy              =    -988.07635967 Ry
     estimated scf accuracy    <       0.00000956 Ry

     total magnetization       =     3.69 Bohr mag/cell
     absolute magnetization    =     4.03 Bohr mag/cell
[tb_dev] Currently allocated     7.83E+00 Mbytes, locked:    0 /  16
[tb_pin] Currently allocated     0.00E+00 Mbytes, locked:    0 /   0

     iteration # 24     ecut=    90.00 Ry     beta= 0.40
     Davidson diagonalization with overlap

---- Real-time Memory Report at c_bands before calling an iterative solver
          2362 MiB given to the printing process from OS
          1450 MiB allocation reported by mallinfo(arena+hblkhd)
         57519 MiB available memory on the node where the printing process lives
     GPU memory used/free/total (MiB): 1906 / 14374 / 16280
------------------
     ethr =  1.59E-08,  avg # of iterations =  2.0

     negative rho (up, down):  3.141E-05 1.025E-03

     total cpu time spent up to now is      146.4 secs

     total energy              =    -988.07636249 Ry
     estimated scf accuracy    <       0.00000835 Ry

     total magnetization       =     3.68 Bohr mag/cell
     absolute magnetization    =     4.01 Bohr mag/cell
[tb_dev] Currently allocated     7.83E+00 Mbytes, locked:    0 /  16
[tb_pin] Currently allocated     0.00E+00 Mbytes, locked:    0 /   0

     iteration # 25     ecut=    90.00 Ry     beta= 0.40
     Davidson diagonalization with overlap

---- Real-time Memory Report at c_bands before calling an iterative solver
          2366 MiB given to the printing process from OS
          1453 MiB allocation reported by mallinfo(arena+hblkhd)
         57513 MiB available memory on the node where the printing process lives
     GPU memory used/free/total (MiB): 1906 / 14374 / 16280
------------------
     ethr =  1.39E-08,  avg # of iterations =  3.8

     negative rho (up, down):  3.055E-05 1.041E-03

     total cpu time spent up to now is      153.2 secs

     total energy              =    -988.07637343 Ry
     estimated scf accuracy    <       0.00001633 Ry

     total magnetization       =     3.65 Bohr mag/cell
     absolute magnetization    =     3.98 Bohr mag/cell
[tb_dev] Currently allocated     7.83E+00 Mbytes, locked:    0 /  16
[tb_pin] Currently allocated     0.00E+00 Mbytes, locked:    0 /   0

     iteration # 26     ecut=    90.00 Ry     beta= 0.40
     Davidson diagonalization with overlap

---- Real-time Memory Report at c_bands before calling an iterative solver
          2370 MiB given to the printing process from OS
          1457 MiB allocation reported by mallinfo(arena+hblkhd)
         57510 MiB available memory on the node where the printing process lives
     GPU memory used/free/total (MiB): 1906 / 14374 / 16280
------------------
     ethr =  1.39E-08,  avg # of iterations =  3.9

     negative rho (up, down):  2.906E-05 1.070E-03

     total cpu time spent up to now is      160.1 secs

     total energy              =    -988.07619807 Ry
     estimated scf accuracy    <       0.00000477 Ry

     total magnetization       =     3.64 Bohr mag/cell
     absolute magnetization    =     3.97 Bohr mag/cell
[tb_dev] Currently allocated     7.83E+00 Mbytes, locked:    0 /  16
[tb_pin] Currently allocated     0.00E+00 Mbytes, locked:    0 /   0

     iteration # 27     ecut=    90.00 Ry     beta= 0.40
     Davidson diagonalization with overlap

---- Real-time Memory Report at c_bands before calling an iterative solver
          2374 MiB given to the printing process from OS
          1460 MiB allocation reported by mallinfo(arena+hblkhd)
         57506 MiB available memory on the node where the printing process lives
     GPU memory used/free/total (MiB): 1906 / 14374 / 16280
------------------
     ethr =  7.96E-09,  avg # of iterations =  6.7

     negative rho (up, down):  3.057E-05 1.041E-03

     total cpu time spent up to now is      170.3 secs

     total energy              =    -988.07610151 Ry
     estimated scf accuracy    <       0.00002012 Ry

     total magnetization       =     3.53 Bohr mag/cell
     absolute magnetization    =     3.86 Bohr mag/cell
[tb_dev] Currently allocated     7.83E+00 Mbytes, locked:    0 /  16
[tb_pin] Currently allocated     0.00E+00 Mbytes, locked:    0 /   0

     iteration # 28     ecut=    90.00 Ry     beta= 0.40
     Davidson diagonalization with overlap

---- Real-time Memory Report at c_bands before calling an iterative solver
          2376 MiB given to the printing process from OS
          1464 MiB allocation reported by mallinfo(arena+hblkhd)
         57503 MiB available memory on the node where the printing process lives
     GPU memory used/free/total (MiB): 1906 / 14374 / 16280
------------------
     ethr =  7.96E-09,  avg # of iterations =  7.5

     negative rho (up, down):  3.208E-05 1.010E-03

     total cpu time spent up to now is      180.8 secs

     total energy              =    -988.07587528 Ry
     estimated scf accuracy    <       0.00002048 Ry

     total magnetization       =     3.65 Bohr mag/cell
     absolute magnetization    =     3.99 Bohr mag/cell
[tb_dev] Currently allocated     7.83E+00 Mbytes, locked:    0 /  16
[tb_pin] Currently allocated     0.00E+00 Mbytes, locked:    0 /   0

     iteration # 29     ecut=    90.00 Ry     beta= 0.40
     Davidson diagonalization with overlap

---- Real-time Memory Report at c_bands before calling an iterative solver
          2380 MiB given to the printing process from OS
          1468 MiB allocation reported by mallinfo(arena+hblkhd)
         57482 MiB available memory on the node where the printing process lives
     GPU memory used/free/total (MiB): 1906 / 14374 / 16280
------------------
     ethr =  7.96E-09,  avg # of iterations =  8.1

     negative rho (up, down):  2.994E-05 1.051E-03

     total cpu time spent up to now is      192.3 secs

     total energy              =    -988.07580537 Ry
     estimated scf accuracy    <       0.00007446 Ry

     total magnetization       =     3.80 Bohr mag/cell
     absolute magnetization    =     4.14 Bohr mag/cell
[tb_dev] Currently allocated     7.83E+00 Mbytes, locked:    0 /  16
[tb_pin] Currently allocated     0.00E+00 Mbytes, locked:    0 /   0

     iteration # 30     ecut=    90.00 Ry     beta= 0.40
     Davidson diagonalization with overlap

---- Real-time Memory Report at c_bands before calling an iterative solver
          2385 MiB given to the printing process from OS
          1472 MiB allocation reported by mallinfo(arena+hblkhd)
         57485 MiB available memory on the node where the printing process lives
     GPU memory used/free/total (MiB): 1906 / 14374 / 16280
------------------
     ethr =  7.96E-09,  avg # of iterations =  8.0

     negative rho (up, down):  2.867E-05 1.075E-03

     total cpu time spent up to now is      203.9 secs

     total energy              =    -988.07621358 Ry
     estimated scf accuracy    <       0.00002198 Ry

     total magnetization       =     3.62 Bohr mag/cell
     absolute magnetization    =     3.96 Bohr mag/cell
[tb_dev] Currently allocated     7.83E+00 Mbytes, locked:    0 /  16
[tb_pin] Currently allocated     0.00E+00 Mbytes, locked:    0 /   0

     iteration # 31     ecut=    90.00 Ry     beta= 0.40
     Davidson diagonalization with overlap

---- Real-time Memory Report at c_bands before calling an iterative solver
          2389 MiB given to the printing process from OS
          1476 MiB allocation reported by mallinfo(arena+hblkhd)
         57487 MiB available memory on the node where the printing process lives
     GPU memory used/free/total (MiB): 1906 / 14374 / 16280
------------------
     ethr =  7.96E-09,  avg # of iterations =  7.5

     negative rho (up, down):  2.862E-05 1.076E-03

     total cpu time spent up to now is      214.5 secs

     total energy              =    -988.07645189 Ry
     estimated scf accuracy    <       0.00004504 Ry

     total magnetization       =     3.51 Bohr mag/cell
     absolute magnetization    =     3.84 Bohr mag/cell
[tb_dev] Currently allocated     7.83E+00 Mbytes, locked:    0 /  16
[tb_pin] Currently allocated     0.00E+00 Mbytes, locked:    0 /   0

     iteration # 32     ecut=    90.00 Ry     beta= 0.40
     Davidson diagonalization with overlap

---- Real-time Memory Report at c_bands before calling an iterative solver
          2394 MiB given to the printing process from OS
          1480 MiB allocation reported by mallinfo(arena+hblkhd)
         57481 MiB available memory on the node where the printing process lives
     GPU memory used/free/total (MiB): 1906 / 14374 / 16280
------------------
     ethr =  7.96E-09,  avg # of iterations =  1.8

     negative rho (up, down):  2.913E-05 1.067E-03

     total cpu time spent up to now is      219.8 secs

     total energy              =    -988.07637647 Ry
     estimated scf accuracy    <       0.00004835 Ry

     total magnetization       =     3.50 Bohr mag/cell
     absolute magnetization    =     3.83 Bohr mag/cell
[tb_dev] Currently allocated     7.83E+00 Mbytes, locked:    0 /  16
[tb_pin] Currently allocated     0.00E+00 Mbytes, locked:    0 /   0

     iteration # 33     ecut=    90.00 Ry     beta= 0.40
     Davidson diagonalization with overlap

---- Real-time Memory Report at c_bands before calling an iterative solver
          2397 MiB given to the printing process from OS
          1484 MiB allocation reported by mallinfo(arena+hblkhd)
         57477 MiB available memory on the node where the printing process lives
     GPU memory used/free/total (MiB): 1906 / 14374 / 16280
------------------
     ethr =  7.96E-09,  avg # of iterations =  4.9

     negative rho (up, down):  2.885E-05 1.072E-03

     total cpu time spent up to now is      227.8 secs

     total energy              =    -988.07642513 Ry
     estimated scf accuracy    <       0.00002815 Ry

     total magnetization       =     3.55 Bohr mag/cell
     absolute magnetization    =     3.88 Bohr mag/cell
[tb_dev] Currently allocated     7.83E+00 Mbytes, locked:    0 /  16
[tb_pin] Currently allocated     0.00E+00 Mbytes, locked:    0 /   0

     iteration # 34     ecut=    90.00 Ry     beta= 0.40
     Davidson diagonalization with overlap

---- Real-time Memory Report at c_bands before calling an iterative solver
          2402 MiB given to the printing process from OS
          1488 MiB allocation reported by mallinfo(arena+hblkhd)
         57477 MiB available memory on the node where the printing process lives
     GPU memory used/free/total (MiB): 1906 / 14374 / 16280
------------------
     ethr =  7.96E-09,  avg # of iterations =  3.6

     negative rho (up, down):  2.855E-05 1.078E-03

     total cpu time spent up to now is      234.7 secs

     total energy              =    -988.07644263 Ry
     estimated scf accuracy    <       0.00004197 Ry

     total magnetization       =     3.53 Bohr mag/cell
     absolute magnetization    =     3.85 Bohr mag/cell
[tb_dev] Currently allocated     7.83E+00 Mbytes, locked:    0 /  16
[tb_pin] Currently allocated     0.00E+00 Mbytes, locked:    0 /   0

     iteration # 35     ecut=    90.00 Ry     beta= 0.40
     Davidson diagonalization with overlap

---- Real-time Memory Report at c_bands before calling an iterative solver
          2405 MiB given to the printing process from OS
          1492 MiB allocation reported by mallinfo(arena+hblkhd)
         57471 MiB available memory on the node where the printing process lives
     GPU memory used/free/total (MiB): 1906 / 14374 / 16280
------------------
     ethr =  7.96E-09,  avg # of iterations =  3.5

     negative rho (up, down):  2.904E-05 1.068E-03

     total cpu time spent up to now is      241.2 secs

     total energy              =    -988.07639822 Ry
     estimated scf accuracy    <       0.00004724 Ry

     total magnetization       =     3.51 Bohr mag/cell
     absolute magnetization    =     3.83 Bohr mag/cell
[tb_dev] Currently allocated     7.83E+00 Mbytes, locked:    0 /  16
[tb_pin] Currently allocated     0.00E+00 Mbytes, locked:    0 /   0

     iteration # 36     ecut=    90.00 Ry     beta= 0.40
     Davidson diagonalization with overlap

---- Real-time Memory Report at c_bands before calling an iterative solver
          2409 MiB given to the printing process from OS
          1496 MiB allocation reported by mallinfo(arena+hblkhd)
         57468 MiB available memory on the node where the printing process lives
     GPU memory used/free/total (MiB): 1906 / 14374 / 16280
------------------
     ethr =  7.96E-09,  avg # of iterations =  4.7

     negative rho (up, down):  2.871E-05 1.074E-03

     total cpu time spent up to now is      248.9 secs

     total energy              =    -988.07642998 Ry
     estimated scf accuracy    <       0.00003426 Ry

     total magnetization       =     3.55 Bohr mag/cell
     absolute magnetization    =     3.88 Bohr mag/cell
[tb_dev] Currently allocated     7.83E+00 Mbytes, locked:    0 /  16
[tb_pin] Currently allocated     0.00E+00 Mbytes, locked:    0 /   0

     iteration # 37     ecut=    90.00 Ry     beta= 0.40
     Davidson diagonalization with overlap

---- Real-time Memory Report at c_bands before calling an iterative solver
          2414 MiB given to the printing process from OS
          1500 MiB allocation reported by mallinfo(arena+hblkhd)
         57465 MiB available memory on the node where the printing process lives
     GPU memory used/free/total (MiB): 1906 / 14374 / 16280
------------------
     ethr =  7.96E-09,  avg # of iterations =  3.5

     negative rho (up, down):  2.870E-05 1.075E-03

     total cpu time spent up to now is      255.6 secs

     total energy              =    -988.07644276 Ry
     estimated scf accuracy    <       0.00003775 Ry

     total magnetization       =     3.52 Bohr mag/cell
     absolute magnetization    =     3.85 Bohr mag/cell
[tb_dev] Currently allocated     7.83E+00 Mbytes, locked:    0 /  16
[tb_pin] Currently allocated     0.00E+00 Mbytes, locked:    0 /   0

     iteration # 38     ecut=    90.00 Ry     beta= 0.40
     Davidson diagonalization with overlap

---- Real-time Memory Report at c_bands before calling an iterative solver
          2417 MiB given to the printing process from OS
          1504 MiB allocation reported by mallinfo(arena+hblkhd)
         57458 MiB available memory on the node where the printing process lives
     GPU memory used/free/total (MiB): 1906 / 14374 / 16280
------------------
     ethr =  7.96E-09,  avg # of iterations =  1.1

     negative rho (up, down):  3.119E-05 1.027E-03

     total cpu time spent up to now is      260.4 secs

     total energy              =    -988.07541765 Ry
     estimated scf accuracy    <       0.00004076 Ry

     total magnetization       =     3.52 Bohr mag/cell
     absolute magnetization    =     3.85 Bohr mag/cell
[tb_dev] Currently allocated     7.83E+00 Mbytes, locked:    0 /  16
[tb_pin] Currently allocated     0.00E+00 Mbytes, locked:    0 /   0

     iteration # 39     ecut=    90.00 Ry     beta= 0.40
     Davidson diagonalization with overlap

---- Real-time Memory Report at c_bands before calling an iterative solver
          2422 MiB given to the printing process from OS
          1508 MiB allocation reported by mallinfo(arena+hblkhd)
         57455 MiB available memory on the node where the printing process lives
     GPU memory used/free/total (MiB): 1906 / 14374 / 16280
------------------
     ethr =  7.96E-09,  avg # of iterations =  8.1

     negative rho (up, down):  3.303E-05 9.913E-04

     total cpu time spent up to now is      272.0 secs

     total energy              =    -988.07576863 Ry
     estimated scf accuracy    <       0.00003704 Ry

     total magnetization       =     3.74 Bohr mag/cell
     absolute magnetization    =     4.08 Bohr mag/cell
[tb_dev] Currently allocated     7.83E+00 Mbytes, locked:    0 /  16
[tb_pin] Currently allocated     0.00E+00 Mbytes, locked:    0 /   0

     iteration # 40     ecut=    90.00 Ry     beta= 0.40
     Davidson diagonalization with overlap

---- Real-time Memory Report at c_bands before calling an iterative solver
          2425 MiB given to the printing process from OS
          1512 MiB allocation reported by mallinfo(arena+hblkhd)
         57454 MiB available memory on the node where the printing process lives
     GPU memory used/free/total (MiB): 1906 / 14374 / 16280
------------------
     ethr =  7.96E-09,  avg # of iterations =  8.2

     negative rho (up, down):  3.021E-05 1.045E-03

     total cpu time spent up to now is      283.7 secs

     total energy              =    -988.07538578 Ry
     estimated scf accuracy    <       0.00024059 Ry

     total magnetization       =     3.88 Bohr mag/cell
     absolute magnetization    =     4.23 Bohr mag/cell
[tb_dev] Currently allocated     7.83E+00 Mbytes, locked:    0 /  16
[tb_pin] Currently allocated     0.00E+00 Mbytes, locked:    0 /   0

     iteration # 41     ecut=    90.00 Ry     beta= 0.40
     Davidson diagonalization with overlap

[...]
     estimated scf accuracy    <       0.00002039 Ry

     total magnetization       =     3.60 Bohr mag/cell
     absolute magnetization    =     3.93 Bohr mag/cell
[tb_dev] Currently allocated     7.83E+00 Mbytes, locked:    0 /  16
[tb_pin] Currently allocated     0.00E+00 Mbytes, locked:    0 /   0

     iteration # 66     ecut=    90.00 Ry     beta= 0.40
     Davidson diagonalization with overlap

---- Real-time Memory Report at c_bands before calling an iterative solver
          2540 MiB given to the printing process from OS
          1627 MiB allocation reported by mallinfo(arena+hblkhd)
         57344 MiB available memory on the node where the printing process lives
     GPU memory used/free/total (MiB): 1906 / 14374 / 16280
------------------
     ethr =  7.96E-09,  avg # of iterations =  3.3

     negative rho (up, down):  2.809E-05 1.086E-03

     total cpu time spent up to now is      521.2 secs

     total energy              =    -988.07624978 Ry
     estimated scf accuracy    <       0.00002302 Ry

     total magnetization       =     3.57 Bohr mag/cell
     absolute magnetization    =     3.90 Bohr mag/cell
[tb_dev] Currently allocated     7.83E+00 Mbytes, locked:    0 /  16
[tb_pin] Currently allocated     0.00E+00 Mbytes, locked:    0 /   0

     iteration # 67     ecut=    90.00 Ry     beta= 0.40
     Davidson diagonalization with overlap

---- Real-time Memory Report at c_bands before calling an iterative solver
          2544 MiB given to the printing process from OS
          1631 MiB allocation reported by mallinfo(arena+hblkhd)
         57339 MiB available memory on the node where the printing process lives
     GPU memory used/free/total (MiB): 1906 / 14374 / 16280
------------------
     ethr =  7.96E-09,  avg # of iterations =  7.3

     negative rho (up, down):  2.810E-05 1.086E-03

     total cpu time spent up to now is      531.8 secs

     total energy              =    -988.07648165 Ry
     estimated scf accuracy    <       0.00008313 Ry

     total magnetization       =     3.46 Bohr mag/cell
     absolute magnetization    =     3.78 Bohr mag/cell
[tb_dev] Currently allocated     7.83E+00 Mbytes, locked:    0 /  16
[tb_pin] Currently allocated     0.00E+00 Mbytes, locked:    0 /   0

     iteration # 68     ecut=    90.00 Ry     beta= 0.40
     Davidson diagonalization with overlap

---- Real-time Memory Report at c_bands before calling an iterative solver
          2548 MiB given to the printing process from OS
          1635 MiB allocation reported by mallinfo(arena+hblkhd)
         57338 MiB available memory on the node where the printing process lives
     GPU memory used/free/total (MiB): 1906 / 14374 / 16280
------------------
     ethr =  7.96E-09,  avg # of iterations =  1.1

     negative rho (up, down):  2.786E-05 1.090E-03

     total cpu time spent up to now is      536.6 secs

     total energy              =    -988.07649102 Ry
     estimated scf accuracy    <       0.00008236 Ry

     total magnetization       =     3.46 Bohr mag/cell
     absolute magnetization    =     3.78 Bohr mag/cell
[tb_dev] Currently allocated     7.83E+00 Mbytes, locked:    0 /  16
[tb_pin] Currently allocated     0.00E+00 Mbytes, locked:    0 /   0

     iteration # 69     ecut=    90.00 Ry     beta= 0.40
     Davidson diagonalization with overlap

---- Real-time Memory Report at c_bands before calling an iterative solver
          2552 MiB given to the printing process from OS
          1639 MiB allocation reported by mallinfo(arena+hblkhd)
         57331 MiB available memory on the node where the printing process lives
     GPU memory used/free/total (MiB): 1906 / 14374 / 16280
------------------
     ethr =  7.96E-09,  avg # of iterations =  3.7

     negative rho (up, down):  2.782E-05 1.091E-03

     total cpu time spent up to now is      543.4 secs

     total energy              =    -988.07650391 Ry
     estimated scf accuracy    <       0.00010507 Ry

     total magnetization       =     3.43 Bohr mag/cell
     absolute magnetization    =     3.76 Bohr mag/cell
[tb_dev] Currently allocated     7.83E+00 Mbytes, locked:    0 /  16
[tb_pin] Currently allocated     0.00E+00 Mbytes, locked:    0 /   0

     iteration # 70     ecut=    90.00 Ry     beta= 0.40
     Davidson diagonalization with overlap

---- Real-time Memory Report at c_bands before calling an iterative solver
          2557 MiB given to the printing process from OS
          1643 MiB allocation reported by mallinfo(arena+hblkhd)
         57324 MiB available memory on the node where the printing process lives
     GPU memory used/free/total (MiB): 1906 / 14374 / 16280
------------------
     ethr =  7.96E-09,  avg # of iterations =  1.3

     negative rho (up, down):  2.729E-05 1.101E-03

     total cpu time spent up to now is      548.4 secs

     total energy              =    -988.07650881 Ry
     estimated scf accuracy    <       0.00011025 Ry

     total magnetization       =     3.43 Bohr mag/cell
     absolute magnetization    =     3.75 Bohr mag/cell
[tb_dev] Currently allocated     7.83E+00 Mbytes, locked:    0 /  16
[tb_pin] Currently allocated     0.00E+00 Mbytes, locked:    0 /   0

     iteration # 71     ecut=    90.00 Ry     beta= 0.40
     Davidson diagonalization with overlap

---- Real-time Memory Report at c_bands before calling an iterative solver
          2562 MiB given to the printing process from OS
          1647 MiB allocation reported by mallinfo(arena+hblkhd)
         57317 MiB available memory on the node where the printing process lives
     GPU memory used/free/total (MiB): 1906 / 14374 / 16280
------------------
     ethr =  7.96E-09,  avg # of iterations =  5.2

     negative rho (up, down):  3.172E-05 1.016E-03

     total cpu time spent up to now is      556.8 secs

     total energy              =    -988.07324467 Ry
     estimated scf accuracy    <       0.00018610 Ry

     total magnetization       =     3.38 Bohr mag/cell
     absolute magnetization    =     3.70 Bohr mag/cell
[tb_dev] Currently allocated     7.83E+00 Mbytes, locked:    0 /  16
[tb_pin] Currently allocated     0.00E+00 Mbytes, locked:    0 /   0

     iteration # 72     ecut=    90.00 Ry     beta= 0.40
     Davidson diagonalization with overlap

---- Real-time Memory Report at c_bands before calling an iterative solver
          2566 MiB given to the printing process from OS
          1651 MiB allocation reported by mallinfo(arena+hblkhd)
         57318 MiB available memory on the node where the printing process lives
     GPU memory used/free/total (MiB): 1906 / 14374 / 16280
------------------
     ethr =  7.96E-09,  avg # of iterations =  9.2

     negative rho (up, down):  3.310E-05 9.899E-04

     total cpu time spent up to now is      570.0 secs

     total energy              =    -988.07595291 Ry
     estimated scf accuracy    <       0.00006368 Ry

     total magnetization       =     3.78 Bohr mag/cell
     absolute magnetization    =     4.12 Bohr mag/cell
[tb_dev] Currently allocated     7.83E+00 Mbytes, locked:    0 /  16
[tb_pin] Currently allocated     0.00E+00 Mbytes, locked:    0 /   0

     iteration # 73     ecut=    90.00 Ry     beta= 0.40
     Davidson diagonalization with overlap

---- Real-time Memory Report at c_bands before calling an iterative solver
          2571 MiB given to the printing process from OS
          1655 MiB allocation reported by mallinfo(arena+hblkhd)
         57314 MiB available memory on the node where the printing process lives
     GPU memory used/free/total (MiB): 1906 / 14374 / 16280
------------------
     ethr =  7.96E-09,  avg # of iterations =  8.0

     negative rho (up, down):  2.423E-05 1.160E-03

     total cpu time spent up to now is      581.2 secs

     total energy              =    -988.06598684 Ry
     estimated scf accuracy    <       0.00024652 Ry

     total magnetization       =     3.88 Bohr mag/cell
     absolute magnetization    =     4.24 Bohr mag/cell
[tb_dev] Currently allocated     7.83E+00 Mbytes, locked:    0 /  16
[tb_pin] Currently allocated     0.00E+00 Mbytes, locked:    0 /   0

     iteration # 74     ecut=    90.00 Ry     beta= 0.40
     Davidson diagonalization with overlap

---- Real-time Memory Report at c_bands before calling an iterative solver
          2575 MiB given to the printing process from OS
          1662 MiB allocation reported by mallinfo(arena+hblkhd)
         57304 MiB available memory on the node where the printing process lives
     GPU memory used/free/total (MiB): 1906 / 14374 / 16280
------------------
     ethr =  7.96E-09,  avg # of iterations = 11.6

     negative rho (up, down):  2.964E-05 1.056E-03

     total cpu time spent up to now is      597.3 secs

     total energy              =    -988.07131838 Ry
     estimated scf accuracy    <       0.00137073 Ry

     total magnetization       =     3.05 Bohr mag/cell
     absolute magnetization    =     3.37 Bohr mag/cell
[tb_dev] Currently allocated     7.83E+00 Mbytes, locked:    0 /  16
[tb_pin] Currently allocated     0.00E+00 Mbytes, locked:    0 /   0

     iteration # 75     ecut=    90.00 Ry     beta= 0.40
     Davidson diagonalization with overlap

---- Real-time Memory Report at c_bands before calling an iterative solver
          2580 MiB given to the printing process from OS
          1667 MiB allocation reported by mallinfo(arena+hblkhd)
         57300 MiB available memory on the node where the printing process lives
     GPU memory used/free/total (MiB): 1906 / 14374 / 16280
------------------
     ethr =  7.96E-09,  avg # of iterations = 10.1

     negative rho (up, down):  2.941E-05 1.061E-03

     total cpu time spent up to now is      611.6 secs

     total energy              =    -988.07640457 Ry
     estimated scf accuracy    <       0.00001917 Ry

     total magnetization       =     3.60 Bohr mag/cell
     absolute magnetization    =     3.94 Bohr mag/cell
[tb_dev] Currently allocated     7.83E+00 Mbytes, locked:    0 /  16
[tb_pin] Currently allocated     0.00E+00 Mbytes, locked:    0 /   0

     iteration # 76     ecut=    90.00 Ry     beta= 0.40
     Davidson diagonalization with overlap

---- Real-time Memory Report at c_bands before calling an iterative solver
          2584 MiB given to the printing process from OS
          1671 MiB allocation reported by mallinfo(arena+hblkhd)
         57296 MiB available memory on the node where the printing process lives
     GPU memory used/free/total (MiB): 1906 / 14374 / 16280
------------------
     ethr =  7.96E-09,  avg # of iterations =  3.2

     negative rho (up, down):  3.010E-05 1.048E-03

     total cpu time spent up to now is      618.0 secs

     total energy              =    -988.07632030 Ry
     estimated scf accuracy    <       0.00002169 Ry

     total magnetization       =     3.58 Bohr mag/cell
     absolute magnetization    =     3.92 Bohr mag/cell
[tb_dev] Currently allocated     7.83E+00 Mbytes, locked:    0 /  16
[tb_pin] Currently allocated     0.00E+00 Mbytes, locked:    0 /   0

     iteration # 77     ecut=    90.00 Ry     beta= 0.40
     Davidson diagonalization with overlap

---- Real-time Memory Report at c_bands before calling an iterative solver
          2589 MiB given to the printing process from OS
          1675 MiB allocation reported by mallinfo(arena+hblkhd)
         57293 MiB available memory on the node where the printing process lives
     GPU memory used/free/total (MiB): 1906 / 14374 / 16280
------------------
     ethr =  7.96E-09,  avg # of iterations =  5.4

     negative rho (up, down):  2.947E-05 1.060E-03

     total cpu time spent up to now is      626.6 secs

     total energy              =    -988.07635253 Ry
     estimated scf accuracy    <       0.00001772 Ry

     total magnetization       =     3.64 Bohr mag/cell
     absolute magnetization    =     3.98 Bohr mag/cell
[tb_dev] Currently allocated     7.83E+00 Mbytes, locked:    0 /  16
[tb_pin] Currently allocated     0.00E+00 Mbytes, locked:    0 /   0

     iteration # 78     ecut=    90.00 Ry     beta= 0.40
     Davidson diagonalization with overlap

---- Real-time Memory Report at c_bands before calling an iterative solver
          2593 MiB given to the printing process from OS
          1679 MiB allocation reported by mallinfo(arena+hblkhd)
         57289 MiB available memory on the node where the printing process lives
     GPU memory used/free/total (MiB): 1906 / 14374 / 16280
------------------
     ethr =  7.96E-09,  avg # of iterations =  5.2

     negative rho (up, down):  3.052E-05 1.039E-03

     total cpu time spent up to now is      634.9 secs

     total energy              =    -988.07621163 Ry
     estimated scf accuracy    <       0.00002155 Ry

     total magnetization       =     3.59 Bohr mag/cell
     absolute magnetization    =     3.92 Bohr mag/cell
[tb_dev] Currently allocated     7.83E+00 Mbytes, locked:    0 /  16
[tb_pin] Currently allocated     0.00E+00 Mbytes, locked:    0 /   0

     iteration # 79     ecut=    90.00 Ry     beta= 0.40
     Davidson diagonalization with overlap

---- Real-time Memory Report at c_bands before calling an iterative solver
          2597 MiB given to the printing process from OS
          1682 MiB allocation reported by mallinfo(arena+hblkhd)
         57287 MiB available memory on the node where the printing process lives
     GPU memory used/free/total (MiB): 1906 / 14374 / 16280
------------------
     ethr =  7.96E-09,  avg # of iterations =  6.3

     negative rho (up, down):  3.060E-05 1.038E-03

     total cpu time spent up to now is      644.4 secs

     total energy              =    -988.07637087 Ry
     estimated scf accuracy    <       0.00002053 Ry

     total magnetization       =     3.68 Bohr mag/cell
     absolute magnetization    =     4.02 Bohr mag/cell
[tb_dev] Currently allocated     7.83E+00 Mbytes, locked:    0 /  16
[tb_pin] Currently allocated     0.00E+00 Mbytes, locked:    0 /   0

     iteration # 80     ecut=    90.00 Ry     beta= 0.40
     Davidson diagonalization with overlap

---- Real-time Memory Report at c_bands before calling an iterative solver
          2603 MiB given to the printing process from OS
          1687 MiB allocation reported by mallinfo(arena+hblkhd)
         57281 MiB available memory on the node where the printing process lives
     GPU memory used/free/total (MiB): 1906 / 14374 / 16280
------------------
     ethr =  7.96E-09,  avg # of iterations =  1.6

     negative rho (up, down):  2.941E-05 1.061E-03

     total cpu time spent up to now is      649.5 secs

     total energy              =    -988.07621430 Ry
     estimated scf accuracy    <       0.00002188 Ry

     total magnetization       =     3.69 Bohr mag/cell
     absolute magnetization    =     4.02 Bohr mag/cell

     End of self-consistent calculation

     convergence NOT achieved after  80 iterations: stopping

     Writing config to output data dir ./out/aiida.save/
 
     init_run     :     27.52s CPU      7.00s WALL (       1 calls)
     electrons    :   1355.73s CPU    641.68s WALL (       1 calls)

     Called by init_run:
     wfcinit      :      2.46s CPU      3.47s WALL (       1 calls)
                                        3.47s GPU  (       1 calls)
     wfcinit:atom :      0.05s CPU      0.08s WALL (     168 calls)
                                        0.08s GPU  (     168 calls)
     wfcinit:wfcr :      1.48s CPU      2.07s WALL (     168 calls)
                                        2.07s GPU  (     168 calls)
     potinit      :     11.73s CPU      1.11s WALL (       1 calls)
     hinit0       :      7.76s CPU      1.62s WALL (       1 calls)

     Called by electrons:
     c_bands      :    546.21s CPU    507.81s WALL (      80 calls)
     sum_band     :     59.86s CPU     65.37s WALL (      80 calls)
     v_of_rho     :     48.28s CPU      4.38s WALL (      81 calls)
     v_h          :      8.79s CPU      0.79s WALL (      81 calls)
     v_xc         :     39.48s CPU      3.59s WALL (      81 calls)
     newd         :     65.49s CPU      6.31s WALL (      81 calls)
                                        6.31s GPU  (      81 calls)
     PAW_pot      :    602.08s CPU     54.52s WALL (      81 calls)
     mix_rho      :     26.59s CPU      2.64s WALL (      80 calls)

     Called by c_bands:
     init_us_2    :     28.05s CPU     27.81s WALL (   27048 calls)
     init_us_2:gp :     27.55s CPU     27.37s WALL (   27048 calls)
     cegterg      :    494.01s CPU    465.34s WALL (   13440 calls)

     Called by sum_band:
     sum_band:wei :      0.49s CPU      0.50s WALL (      80 calls)
                                        0.49s GPU  (      80 calls)
     sum_band:loo :     49.12s CPU     54.46s WALL (      80 calls)
                                       54.46s GPU  (      80 calls)
     sum_band:buf :     10.70s CPU     11.97s WALL (   13440 calls)
                                       11.88s GPU  (   13440 calls)
     sum_band:ini :     12.14s CPU     13.70s WALL (   13440 calls)
                                       13.63s GPU  (   13440 calls)
     sum_band:cal :      0.36s CPU      2.30s WALL (   13440 calls)
                                        2.05s GPU  (   13440 calls)
     sum_band:bec :      2.22s CPU      2.61s WALL (   13440 calls)
                                        2.53s GPU  (   13440 calls)
     addusdens    :      7.72s CPU      7.87s WALL (      80 calls)
                                        7.87s GPU  (      80 calls)
     addusd:skk   :      0.02s CPU      0.02s WALL (     240 calls)
                                        0.02s GPU  (     240 calls)

     Called by *egterg:
     cdiaghg      :    218.02s CPU    216.97s WALL (   75581 calls)
                                      216.47s GPU  (   75581 calls)
     cegterg:over :     12.99s CPU     11.94s WALL (   62141 calls)
     cegterg:upda :     22.21s CPU     20.83s WALL (   62141 calls)
     cegterg:last :      7.27s CPU      6.91s WALL (   36257 calls)
     h_psi        :    197.97s CPU    178.31s WALL (   75749 calls)
                                      177.84s GPU  (   75749 calls)
     s_psi        :      7.20s CPU     11.14s WALL (   75749 calls)
                                       10.32s GPU  (   75749 calls)
     g_psi        :      0.49s CPU      1.64s WALL (   62141 calls)
                                        1.24s GPU  (   62141 calls)

     Called by h_psi:
     h_psi:calbec :      2.79s CPU      9.94s WALL (   75749 calls)
                                        9.47s GPU  (   75749 calls)
     vloc_psi     :    167.07s CPU    151.63s WALL (   75749 calls)
                                      151.15s GPU  (   75749 calls)
     add_vuspsi   :      9.10s CPU     11.68s WALL (   75749 calls)
                                       11.22s GPU  (   75749 calls)

     General routines
     calbec       :      2.28s CPU      2.12s WALL (   89189 calls)
     fft          :      2.71s CPU      0.64s WALL (    2023 calls)
                                        0.50s GPU  (    1861 calls)
     ffts         :      0.10s CPU      0.04s WALL (     322 calls)
                                        0.01s GPU  (     160 calls)
     fftw         :      6.97s CPU    107.23s WALL (  325522 calls)
                                      105.46s GPU  (  325522 calls)
     interpolate  :      5.44s CPU      0.49s WALL (     162 calls)
     davcio       :      0.05s CPU      0.31s WALL (     186 calls)
 
     Parallel routines

     PAW routines
     PAW_pot      :    602.08s CPU     54.52s WALL (      81 calls)
     PAW_symme    :      1.49s CPU      0.24s WALL (     161 calls)
 
     PWSCF        :  23m 6.14s CPU  10m50.07s WALL

 
   This run was terminated on:  22:20: 9  22Oct2023            

=------------------------------------------------------------------------------=
   JOB DONE.
=------------------------------------------------------------------------------=
