
     Program PWSCF v.7.2 starts on 23Oct2023 at 18: 8:40 

     This program is part of the open-source Quantum ESPRESSO suite
     for quantum simulation of materials; please cite
         "P. Giannozzi et al., J. Phys.:Condens. Matter 21 395502 (2009);
         "P. Giannozzi et al., J. Phys.:Condens. Matter 29 465901 (2017);
         "P. Giannozzi et al., J. Chem. Phys. 152 154105 (2020);
          URL http://www.quantum-espresso.org", 
     in publications or presentations arising from this work. More details at
     http://www.quantum-espresso.org/quote

     Parallel version (MPI & OpenMP), running on      12 processor cores
     Number of MPI processes:                 1
     Threads/MPI process:                    12

     MPI processes distributed on     1 nodes
     60343 MiB available memory on the printing compute node when the environment starts
 
     Reading input from aiida.in

     Current dimensions of program PWSCF are:
     Max number of different atomic species (ntypx) = 10
     Max number of k-points (npk) =  40000
     Max angular momentum in pseudopotentials (lmaxx) =  4
     Message from routine setup:
     using ibrav=0 with symmetry is DISCOURAGED, use correct ibrav instead
 
     Subspace diagonalization in iterative solution of the eigenvalue problem:
     a serial algorithm will be used

 
     G-vector sticks info
     --------------------
     sticks:   dense  smooth     PW     G-vecs:    dense   smooth      PW
     Sum        1573     793    241                41151    14553    2445
 
     Using Slab Decomposition
 


     bravais-lattice index     =            0
     lattice parameter (alat)  =       8.4584  a.u.
     unit-cell volume          =     427.9054 (a.u.)^3
     number of atoms/cell      =            4
     number of atomic types    =            4
     number of electrons       =        52.00
     number of Kohn-Sham states=           31
     kinetic-energy cutoff     =      40.0000  Ry
     charge density cutoff     =     320.0000  Ry
     scf convergence threshold =      8.0E-10
     mixing beta               =       0.2000
     number of iterations used =            8  plain     mixing
     Exchange-correlation= SLA  PW   PSX  PSC
                           (   1   4  10   8   0   0   0)

     GPU acceleration is ACTIVE.


     GPU used by master process:

        Device Number: 0
        Device name: Tesla P100-PCIE-16GB
        Compute capability : 60
        Ratio of single to double precision performance  : 2
        Memory Clock Rate (KHz): 715000
        Memory Bus Width (bits): 4096
        Peak Memory Bandwidth (GB/s): 732.16

     celldm(1)=   8.458388  celldm(2)=   0.000000  celldm(3)=   0.000000
     celldm(4)=   0.000000  celldm(5)=   0.000000  celldm(6)=   0.000000

     crystal axes: (cart. coord. in units of alat)
               a(1) = (   0.000000   0.707107   0.707107 )  
               a(2) = (   0.707107   0.000000   0.707107 )  
               a(3) = (   0.707107   0.707107   0.000000 )  

     reciprocal axes: (cart. coord. in units 2 pi/alat)
               b(1) = ( -0.707107  0.707107  0.707107 )  
               b(2) = (  0.707107 -0.707107  0.707107 )  
               b(3) = (  0.707107  0.707107 -0.707107 )  


     PseudoPot. # 1 for Cr read from file:
     ./pseudo/cr_pbesol_v1.5.uspp.F.UPF
     MD5 check sum: a621641e0be27168676a837af8893d0f
     Pseudo is Ultrasoft + core correction, Zval = 14.0
     Generated by new atomic code, or converted to UPF format
     Using radial grid of  857 points,  6 beta functions with: 
                l(1) =   0
                l(2) =   0
                l(3) =   1
                l(4) =   1
                l(5) =   2
                l(6) =   2
     Q(r) pseudized with  8 coefficients,  rinner =    0.950   0.950   0.950
                                                       0.950   0.950

     PseudoPot. # 2 for Ge read from file:
     ./pseudo/ge_pbesol_v1.4.uspp.F.UPF
     MD5 check sum: 7bed0412183f5e553a4d27ec7023354d
     Pseudo is Ultrasoft + core correction, Zval = 14.0
     Generated by new atomic code, or converted to UPF format
     Using radial grid of  873 points,  6 beta functions with: 
                l(1) =   0
                l(2) =   0
                l(3) =   1
                l(4) =   1
                l(5) =   2
                l(6) =   2
     Q(r) pseudized with  8 coefficients,  rinner =    1.400   1.400   1.400
                                                       1.400   1.400

     PseudoPot. # 3 for V  read from file:
     ./pseudo/v_pbesol_v1.4.uspp.F.UPF
     MD5 check sum: 72fa7d0034c41d8adc50bbc8c632b9f9
     Pseudo is Ultrasoft + core correction, Zval = 13.0
     Generated by new atomic code, or converted to UPF format
     Using radial grid of  853 points,  6 beta functions with: 
                l(1) =   0
                l(2) =   0
                l(3) =   1
                l(4) =   1
                l(5) =   2
                l(6) =   2
     Q(r) pseudized with  8 coefficients,  rinner =    1.100   1.100   1.100
                                                       1.100   1.100

     PseudoPot. # 4 for Y  read from file:
     ./pseudo/y_pbesol_v1.4.uspp.F.UPF
     MD5 check sum: dac24993bfd4491f22c7b9129ad9e93d
     Pseudo is Ultrasoft + core correction, Zval = 11.0
     Generated by new atomic code, or converted to UPF format
     Using radial grid of  885 points,  6 beta functions with: 
                l(1) =   0
                l(2) =   0
                l(3) =   1
                l(4) =   1
                l(5) =   2
                l(6) =   2
     Q(r) pseudized with  8 coefficients,  rinner =    1.200   1.200   1.200
                                                       1.200   1.200

     atomic species   valence    mass     pseudopotential
        Cr            14.00    51.99610     Cr( 1.00)
        Ge            14.00    72.64000     Ge( 1.00)
        V             13.00    50.94150     V ( 1.00)
        Y             11.00    88.90585     Y ( 1.00)

     Starting magnetic structure 
     atomic species   magnetization
        Cr           0.357
        Ge           0.100
        V            0.385
        Y            0.455

     24 Sym. Ops. (no inversion) found


                                    s                        frac. trans.

      isym =  1     identity                                     

 cryst.   s( 1) = (     1          0          0      )
                  (     0          1          0      )
                  (     0          0          1      )

 cart.    s( 1) = (  1.0000000 -0.0000000  0.0000000 )
                  ( -0.0000000  1.0000000  0.0000000 )
                  ( -0.0000000  0.0000000  1.0000000 )


      isym =  2     180 deg rotation - cart. axis [0,0,1]        

 cryst.   s( 2) = (     0          1         -1      )
                  (     1          0         -1      )
                  (     0          0         -1      )

 cart.    s( 2) = ( -1.0000000  0.0000000  0.0000000 )
                  (  0.0000000 -1.0000000  0.0000000 )
                  (  0.0000000 -0.0000000  1.0000000 )


      isym =  3     180 deg rotation - cart. axis [0,1,0]        

 cryst.   s( 3) = (     0         -1          1      )
                  (     0         -1          0      )
                  (     1         -1          0      )

 cart.    s( 3) = ( -1.0000000 -0.0000000 -0.0000000 )
                  (  0.0000000  1.0000000 -0.0000000 )
                  (  0.0000000  0.0000000 -1.0000000 )


      isym =  4     180 deg rotation - cart. axis [1,0,0]        

 cryst.   s( 4) = (    -1          0          0      )
                  (    -1          0          1      )
                  (    -1          1          0      )

 cart.    s( 4) = (  1.0000000  0.0000000 -0.0000000 )
                  ( -0.0000000 -1.0000000 -0.0000000 )
                  ( -0.0000000 -0.0000000 -1.0000000 )


      isym =  5     120 deg rotation - cart. axis [-1,-1,-1]     

 cryst.   s( 5) = (     0          0          1      )
                  (     1          0          0      )
                  (     0          1          0      )

 cart.    s( 5) = (  0.0000000  1.0000000 -0.0000000 )
                  (  0.0000000 -0.0000000  1.0000000 )
                  (  1.0000000 -0.0000000  0.0000000 )


      isym =  6     120 deg rotation - cart. axis [-1,1,1]       

 cryst.   s( 6) = (     1         -1          0      )
                  (     0         -1          1      )
                  (     0         -1          0      )

 cart.    s( 6) = ( -0.0000000 -1.0000000 -0.0000000 )
                  ( -0.0000000  0.0000000  1.0000000 )
                  ( -1.0000000  0.0000000  0.0000000 )


      isym =  7     120 deg rotation - cart. axis [1,1,-1]       

 cryst.   s( 7) = (    -1          1          0      )
                  (    -1          0          0      )
                  (    -1          0          1      )

 cart.    s( 7) = ( -0.0000000  1.0000000  0.0000000 )
                  ( -0.0000000 -0.0000000 -1.0000000 )
                  ( -1.0000000 -0.0000000 -0.0000000 )


      isym =  8     120 deg rotation - cart. axis [1,-1,1]       

 cryst.   s( 8) = (     0          0         -1      )
                  (     0          1         -1      )
                  (     1          0         -1      )

 cart.    s( 8) = (  0.0000000 -1.0000000  0.0000000 )
                  (  0.0000000  0.0000000 -1.0000000 )
                  (  1.0000000  0.0000000 -0.0000000 )


      isym =  9     120 deg rotation - cart. axis [1,1,1]        

 cryst.   s( 9) = (     0          1          0      )
                  (     0          0          1      )
                  (     1          0          0      )

 cart.    s( 9) = ( -0.0000000  0.0000000  1.0000000 )
                  (  1.0000000  0.0000000 -0.0000000 )
                  (  0.0000000  1.0000000 -0.0000000 )


      isym = 10     120 deg rotation - cart. axis [-1,1,-1]      

 cryst.   s(10) = (    -1          0          1      )
                  (    -1          1          0      )
                  (    -1          0          0      )

 cart.    s(10) = (  0.0000000 -0.0000000  1.0000000 )
                  ( -1.0000000 -0.0000000 -0.0000000 )
                  ( -0.0000000 -1.0000000 -0.0000000 )


      isym = 11     120 deg rotation - cart. axis [1,-1,-1]      

 cryst.   s(11) = (     1          0         -1      )
                  (     0          0         -1      )
                  (     0          1         -1      )

 cart.    s(11) = (  0.0000000  0.0000000 -1.0000000 )
                  ( -1.0000000  0.0000000  0.0000000 )
                  ( -0.0000000  1.0000000  0.0000000 )


      isym = 12     120 deg rotation - cart. axis [-1,-1,1]      

 cryst.   s(12) = (     0         -1          0      )
                  (     1         -1          0      )
                  (     0         -1          1      )

 cart.    s(12) = ( -0.0000000 -0.0000000 -1.0000000 )
                  (  1.0000000 -0.0000000  0.0000000 )
                  (  0.0000000 -1.0000000  0.0000000 )


      isym = 13     inv. 180 deg rotation - cart. axis [1,1,0]   

 cryst.   s(13) = (     1          0         -1      )
                  (     0          1         -1      )
                  (     0          0         -1      )

 cart.    s(13) = (  0.0000000 -1.0000000  0.0000000 )
                  ( -1.0000000  0.0000000  0.0000000 )
                  ( -0.0000000  0.0000000  1.0000000 )


      isym = 14     inv. 180 deg rotation - cart. axis [1,-1,0]  

 cryst.   s(14) = (     0          1          0      )
                  (     1          0          0      )
                  (     0          0          1      )

 cart.    s(14) = ( -0.0000000  1.0000000  0.0000000 )
                  (  1.0000000 -0.0000000  0.0000000 )
                  (  0.0000000 -0.0000000  1.0000000 )


      isym = 15     inv.  90 deg rotation - cart. axis [0,0,-1]  

 cryst.   s(15) = (     0         -1          0      )
                  (     0         -1          1      )
                  (     1         -1          0      )

 cart.    s(15) = ( -0.0000000 -1.0000000 -0.0000000 )
                  (  1.0000000  0.0000000 -0.0000000 )
                  (  0.0000000  0.0000000 -1.0000000 )


      isym = 16     inv.  90 deg rotation - cart. axis [0,0,1]   

 cryst.   s(16) = (    -1          0          1      )
                  (    -1          0          0      )
                  (    -1          1          0      )

 cart.    s(16) = (  0.0000000  1.0000000 -0.0000000 )
                  ( -1.0000000 -0.0000000 -0.0000000 )
                  ( -0.0000000 -0.0000000 -1.0000000 )


      isym = 17     inv. 180 deg rotation - cart. axis [1,0,1]   

 cryst.   s(17) = (     1         -1          0      )
                  (     0         -1          0      )
                  (     0         -1          1      )

 cart.    s(17) = ( -0.0000000 -0.0000000 -1.0000000 )
                  ( -0.0000000  1.0000000  0.0000000 )
                  ( -1.0000000  0.0000000  0.0000000 )


      isym = 18     inv. 180 deg rotation - cart. axis [-1,0,1]  

 cryst.   s(18) = (     0          0          1      )
                  (     0          1          0      )
                  (     1          0          0      )

 cart.    s(18) = (  0.0000000 -0.0000000  1.0000000 )
                  (  0.0000000  1.0000000 -0.0000000 )
                  (  1.0000000  0.0000000 -0.0000000 )


      isym = 19     inv.  90 deg rotation - cart. axis [0,1,0]   

 cryst.   s(19) = (     0          0         -1      )
                  (     1          0         -1      )
                  (     0          1         -1      )

 cart.    s(19) = (  0.0000000  0.0000000 -1.0000000 )
                  (  0.0000000 -1.0000000  0.0000000 )
                  (  1.0000000 -0.0000000  0.0000000 )


      isym = 20     inv.  90 deg rotation - cart. axis [0,-1,0]  

 cryst.   s(20) = (    -1          1          0      )
                  (    -1          0          1      )
                  (    -1          0          0      )

 cart.    s(20) = ( -0.0000000  0.0000000  1.0000000 )
                  ( -0.0000000 -1.0000000 -0.0000000 )
                  ( -1.0000000 -0.0000000 -0.0000000 )


      isym = 21     inv. 180 deg rotation - cart. axis [0,1,1]   

 cryst.   s(21) = (    -1          0          0      )
                  (    -1          1          0      )
                  (    -1          0          1      )

 cart.    s(21) = (  1.0000000 -0.0000000  0.0000000 )
                  ( -0.0000000 -0.0000000 -1.0000000 )
                  ( -0.0000000 -1.0000000 -0.0000000 )


      isym = 22     inv. 180 deg rotation - cart. axis [0,1,-1]  

 cryst.   s(22) = (     1          0          0      )
                  (     0          0          1      )
                  (     0          1          0      )

 cart.    s(22) = (  1.0000000  0.0000000 -0.0000000 )
                  ( -0.0000000  0.0000000  1.0000000 )
                  ( -0.0000000  1.0000000  0.0000000 )


      isym = 23     inv.  90 deg rotation - cart. axis [-1,0,0]  

 cryst.   s(23) = (     0          1         -1      )
                  (     0          0         -1      )
                  (     1          0         -1      )

 cart.    s(23) = ( -1.0000000  0.0000000  0.0000000 )
                  (  0.0000000  0.0000000 -1.0000000 )
                  (  0.0000000  1.0000000 -0.0000000 )


      isym = 24     inv.  90 deg rotation - cart. axis [1,0,0]   

 cryst.   s(24) = (     0         -1          1      )
                  (     1         -1          0      )
                  (     0         -1          0      )

 cart.    s(24) = ( -1.0000000 -0.0000000 -0.0000000 )
                  (  0.0000000 -0.0000000  1.0000000 )
                  (  0.0000000 -1.0000000  0.0000000 )


   Cartesian axes

     site n.     atom                  positions (alat units)
         1           Y   tau(   1) = (   0.3535534   0.3535534   0.3535534  )
         2           V   tau(   2) = (   0.7071068   0.0000000   0.0000000  )
         3           Cr  tau(   3) = (   0.0000000   0.0000000   0.0000000  )
         4           Ge  tau(   4) = (   0.3535534   0.3535534   1.0606602  )

   Crystallographic axes

     site n.     atom                  positions (cryst. coord.)
         1           Y   tau(   1) = (  0.2500000  0.2500000  0.2500000  )
         2           V   tau(   2) = ( -0.5000000  0.5000000  0.5000000  )
         3           Cr  tau(   3) = (  0.0000000  0.0000000  0.0000000  )
         4           Ge  tau(   4) = (  0.7500000  0.7500000 -0.2500000  )

     number of k points=    72  Marzari-Vanderbilt smearing, width (Ry)=  0.0100
                       cart. coord. in units 2pi/alat
        k(    1) = (   0.0000000   0.0000000   0.0000000), wk =   0.0005787
        k(    2) = (   0.0589256   0.0589256  -0.0589256), wk =   0.0046296
        k(    3) = (   0.1178511   0.1178511  -0.1178511), wk =   0.0046296
        k(    4) = (   0.1767767   0.1767767  -0.1767767), wk =   0.0046296
        k(    5) = (   0.2357023   0.2357023  -0.2357023), wk =   0.0046296
        k(    6) = (   0.2946278   0.2946278  -0.2946278), wk =   0.0046296
        k(    7) = (  -0.3535534  -0.3535534   0.3535534), wk =   0.0023148
        k(    8) = (   0.1178511   0.0000000  -0.0000000), wk =   0.0034722
        k(    9) = (   0.1767767   0.0589256  -0.0589256), wk =   0.0138889
        k(   10) = (   0.2357023   0.1178511  -0.1178511), wk =   0.0138889
        k(   11) = (   0.2946278   0.1767767  -0.1767767), wk =   0.0138889
        k(   12) = (   0.3535534   0.2357023  -0.2357023), wk =   0.0138889
        k(   13) = (  -0.2946278  -0.4124790   0.4124790), wk =   0.0138889
        k(   14) = (  -0.2357023  -0.3535534   0.3535534), wk =   0.0138889
        k(   15) = (  -0.1767767  -0.2946278   0.2946278), wk =   0.0138889
        k(   16) = (  -0.1178511  -0.2357023   0.2357023), wk =   0.0138889
        k(   17) = (  -0.0589256  -0.1767767   0.1767767), wk =   0.0138889
        k(   18) = (  -0.0000000  -0.1178511   0.1178511), wk =   0.0069444
        k(   19) = (   0.2357023   0.0000000  -0.0000000), wk =   0.0034722
        k(   20) = (   0.2946278   0.0589256  -0.0589256), wk =   0.0138889
        k(   21) = (   0.3535534   0.1178511  -0.1178511), wk =   0.0138889
        k(   22) = (   0.4124790   0.1767767  -0.1767767), wk =   0.0138889
        k(   23) = (  -0.2357023  -0.4714045   0.4714045), wk =   0.0138889
        k(   24) = (  -0.1767767  -0.4124790   0.4124790), wk =   0.0138889
        k(   25) = (  -0.1178511  -0.3535534   0.3535534), wk =   0.0138889
        k(   26) = (  -0.0589256  -0.2946278   0.2946278), wk =   0.0138889
        k(   27) = (   0.0000000  -0.2357023   0.2357023), wk =   0.0069444
        k(   28) = (   0.3535534   0.0000000   0.0000000), wk =   0.0034722
        k(   29) = (   0.4124790   0.0589256  -0.0589256), wk =   0.0138889
        k(   30) = (   0.4714045   0.1178511  -0.1178511), wk =   0.0138889
        k(   31) = (  -0.1767767  -0.5303301   0.5303301), wk =   0.0138889
        k(   32) = (  -0.1178511  -0.4714045   0.4714045), wk =   0.0138889
        k(   33) = (  -0.0589256  -0.4124790   0.4124790), wk =   0.0138889
        k(   34) = (   0.0000000  -0.3535534   0.3535534), wk =   0.0069444
        k(   35) = (   0.4714045   0.0000000  -0.0000000), wk =   0.0034722
        k(   36) = (   0.5303301   0.0589256  -0.0589256), wk =   0.0138889
        k(   37) = (  -0.1178511  -0.5892557   0.5892557), wk =   0.0138889
        k(   38) = (  -0.0589256  -0.5303301   0.5303301), wk =   0.0138889
        k(   39) = (  -0.0000000  -0.4714045   0.4714045), wk =   0.0069444
        k(   40) = (   0.5892557   0.0000000  -0.0000000), wk =   0.0034722
        k(   41) = (  -0.0589256  -0.6481812   0.6481812), wk =   0.0138889
        k(   42) = (   0.0000000  -0.5892557   0.5892557), wk =   0.0069444
        k(   43) = (  -0.7071068   0.0000000   0.0000000), wk =   0.0017361
        k(   44) = (   0.2357023   0.1178511   0.0000000), wk =   0.0138889
        k(   45) = (   0.2946278   0.1767767  -0.0589256), wk =   0.0277778
        k(   46) = (   0.3535534   0.2357023  -0.1178511), wk =   0.0277778
        k(   47) = (  -0.2946278  -0.4124790   0.5303301), wk =   0.0277778
        k(   48) = (  -0.2357023  -0.3535534   0.4714045), wk =   0.0138889
        k(   49) = (   0.3535534   0.1178511  -0.0000000), wk =   0.0138889
        k(   50) = (   0.4124790   0.1767767  -0.0589256), wk =   0.0277778
        k(   51) = (  -0.2357023  -0.4714045   0.5892557), wk =   0.0277778
        k(   52) = (  -0.1767767  -0.4124790   0.5303301), wk =   0.0277778
        k(   53) = (  -0.1178511  -0.3535534   0.4714045), wk =   0.0277778
        k(   54) = (  -0.0589256  -0.2946278   0.4124790), wk =   0.0277778
        k(   55) = (   0.0000000  -0.2357023   0.3535534), wk =   0.0138889
        k(   56) = (   0.4714045   0.1178511  -0.0000000), wk =   0.0138889
        k(   57) = (  -0.1767767  -0.5303301   0.6481812), wk =   0.0277778
        k(   58) = (  -0.1178511  -0.4714045   0.5892557), wk =   0.0277778
        k(   59) = (  -0.0589256  -0.4124790   0.5303301), wk =   0.0277778
        k(   60) = (   0.0000000  -0.3535534   0.4714045), wk =   0.0138889
        k(   61) = (  -0.1178511  -0.5892557   0.7071068), wk =   0.0138889
        k(   62) = (  -0.0589256  -0.5303301   0.6481812), wk =   0.0277778
        k(   63) = (  -0.0000000  -0.4714045   0.5892557), wk =   0.0138889
        k(   64) = (  -0.7071068   0.1178511  -0.0000000), wk =   0.0069444
        k(   65) = (  -0.2357023  -0.4714045   0.7071068), wk =   0.0138889
        k(   66) = (  -0.1767767  -0.4124790   0.6481812), wk =   0.0277778
        k(   67) = (  -0.1178511  -0.3535534   0.5892557), wk =   0.0138889
        k(   68) = (  -0.1178511  -0.4714045   0.7071068), wk =   0.0138889
        k(   69) = (  -0.0589256  -0.4124790   0.6481812), wk =   0.0277778
        k(   70) = (   0.0000000  -0.3535534   0.5892557), wk =   0.0138889
        k(   71) = (  -0.7071068   0.2357023   0.0000000), wk =   0.0069444
        k(   72) = (  -0.7071068   0.3535534   0.0000000), wk =   0.0034722

                       cryst. coord.
        k(    1) = (   0.0000000   0.0000000   0.0000000), wk =   0.0005787
        k(    2) = (   0.0000000   0.0000000   0.0833333), wk =   0.0046296
        k(    3) = (   0.0000000   0.0000000   0.1666667), wk =   0.0046296
        k(    4) = (   0.0000000   0.0000000   0.2500000), wk =   0.0046296
        k(    5) = (   0.0000000   0.0000000   0.3333333), wk =   0.0046296
        k(    6) = (  -0.0000000  -0.0000000   0.4166667), wk =   0.0046296
        k(    7) = (  -0.0000000  -0.0000000  -0.5000000), wk =   0.0023148
        k(    8) = (  -0.0000000   0.0833333   0.0833333), wk =   0.0034722
        k(    9) = (   0.0000000   0.0833333   0.1666667), wk =   0.0138889
        k(   10) = (  -0.0000000   0.0833333   0.2500000), wk =   0.0138889
        k(   11) = (   0.0000000   0.0833333   0.3333333), wk =   0.0138889
        k(   12) = (  -0.0000000   0.0833333   0.4166667), wk =   0.0138889
        k(   13) = (  -0.0000000   0.0833333  -0.5000000), wk =   0.0138889
        k(   14) = (   0.0000000   0.0833333  -0.4166667), wk =   0.0138889
        k(   15) = (  -0.0000000   0.0833333  -0.3333333), wk =   0.0138889
        k(   16) = (  -0.0000000   0.0833333  -0.2500000), wk =   0.0138889
        k(   17) = (   0.0000000   0.0833333  -0.1666667), wk =   0.0138889
        k(   18) = (   0.0000000   0.0833333  -0.0833333), wk =   0.0069444
        k(   19) = (  -0.0000000   0.1666667   0.1666667), wk =   0.0034722
        k(   20) = (  -0.0000000   0.1666667   0.2500000), wk =   0.0138889
        k(   21) = (   0.0000000   0.1666667   0.3333333), wk =   0.0138889
        k(   22) = (   0.0000000   0.1666667   0.4166667), wk =   0.0138889
        k(   23) = (  -0.0000000   0.1666667  -0.5000000), wk =   0.0138889
        k(   24) = (  -0.0000000   0.1666667  -0.4166667), wk =   0.0138889
        k(   25) = (  -0.0000000   0.1666667  -0.3333333), wk =   0.0138889
        k(   26) = (   0.0000000   0.1666667  -0.2500000), wk =   0.0138889
        k(   27) = (   0.0000000   0.1666667  -0.1666667), wk =   0.0069444
        k(   28) = (   0.0000000   0.2500000   0.2500000), wk =   0.0034722
        k(   29) = (  -0.0000000   0.2500000   0.3333333), wk =   0.0138889
        k(   30) = (  -0.0000000   0.2500000   0.4166667), wk =   0.0138889
        k(   31) = (   0.0000000   0.2500000  -0.5000000), wk =   0.0138889
        k(   32) = (  -0.0000000   0.2500000  -0.4166667), wk =   0.0138889
        k(   33) = (  -0.0000000   0.2500000  -0.3333333), wk =   0.0138889
        k(   34) = (  -0.0000000   0.2500000  -0.2500000), wk =   0.0069444
        k(   35) = (  -0.0000000   0.3333333   0.3333333), wk =   0.0034722
        k(   36) = (  -0.0000000   0.3333333   0.4166667), wk =   0.0138889
        k(   37) = (   0.0000000   0.3333333  -0.5000000), wk =   0.0138889
        k(   38) = (  -0.0000000   0.3333333  -0.4166667), wk =   0.0138889
        k(   39) = (   0.0000000   0.3333333  -0.3333333), wk =   0.0069444
        k(   40) = (   0.0000000   0.4166667   0.4166667), wk =   0.0034722
        k(   41) = (   0.0000000   0.4166667  -0.5000000), wk =   0.0138889
        k(   42) = (   0.0000000   0.4166667  -0.4166667), wk =   0.0069444
        k(   43) = (   0.0000000  -0.5000000  -0.5000000), wk =   0.0017361
        k(   44) = (   0.0833333   0.1666667   0.2500000), wk =   0.0138889
        k(   45) = (   0.0833333   0.1666667   0.3333333), wk =   0.0277778
        k(   46) = (   0.0833333   0.1666667   0.4166667), wk =   0.0277778
        k(   47) = (   0.0833333   0.1666667  -0.5000000), wk =   0.0277778
        k(   48) = (   0.0833333   0.1666667  -0.4166667), wk =   0.0138889
        k(   49) = (   0.0833333   0.2500000   0.3333333), wk =   0.0138889
        k(   50) = (   0.0833333   0.2500000   0.4166667), wk =   0.0277778
        k(   51) = (   0.0833333   0.2500000  -0.5000000), wk =   0.0277778
        k(   52) = (   0.0833333   0.2500000  -0.4166667), wk =   0.0277778
        k(   53) = (   0.0833333   0.2500000  -0.3333333), wk =   0.0277778
        k(   54) = (   0.0833333   0.2500000  -0.2500000), wk =   0.0277778
        k(   55) = (   0.0833333   0.2500000  -0.1666667), wk =   0.0138889
        k(   56) = (   0.0833333   0.3333333   0.4166667), wk =   0.0138889
        k(   57) = (   0.0833333   0.3333333  -0.5000000), wk =   0.0277778
        k(   58) = (   0.0833333   0.3333333  -0.4166667), wk =   0.0277778
        k(   59) = (   0.0833333   0.3333333  -0.3333333), wk =   0.0277778
        k(   60) = (   0.0833333   0.3333333  -0.2500000), wk =   0.0138889
        k(   61) = (   0.0833333   0.4166667  -0.5000000), wk =   0.0138889
        k(   62) = (   0.0833333   0.4166667  -0.4166667), wk =   0.0277778
        k(   63) = (   0.0833333   0.4166667  -0.3333333), wk =   0.0138889
        k(   64) = (   0.0833333  -0.5000000  -0.4166667), wk =   0.0069444
        k(   65) = (   0.1666667   0.3333333  -0.5000000), wk =   0.0138889
        k(   66) = (   0.1666667   0.3333333  -0.4166667), wk =   0.0277778
        k(   67) = (   0.1666667   0.3333333  -0.3333333), wk =   0.0138889
        k(   68) = (   0.1666667   0.4166667  -0.4166667), wk =   0.0138889
        k(   69) = (   0.1666667   0.4166667  -0.3333333), wk =   0.0277778
        k(   70) = (   0.1666667   0.4166667  -0.2500000), wk =   0.0138889
        k(   71) = (   0.1666667  -0.5000000  -0.3333333), wk =   0.0069444
        k(   72) = (   0.2500000  -0.5000000  -0.2500000), wk =   0.0034722

     Dense  grid:    41151 G-vectors     FFT dimensions: (  50,  50,  50)

     Smooth grid:    14553 G-vectors     FFT dimensions: (  36,  36,  36)

     Dynamical RAM for                 wfc:       0.86 MB

     Dynamical RAM for     wfc (w. buffer):     125.38 MB

     Dynamical RAM for           str. fact:       2.51 MB

     Dynamical RAM for           local pot:       0.00 MB

     Dynamical RAM for          nlocal pot:       2.01 MB

     Dynamical RAM for                qrad:       5.74 MB

     Dynamical RAM for          rho,v,vnew:       9.49 MB

     Dynamical RAM for               rhoin:       3.16 MB

     Dynamical RAM for            rho*nmix:      20.09 MB

     Dynamical RAM for           G-vectors:       2.47 MB

     Dynamical RAM for          h,s,v(r/c):       0.18 MB

     Dynamical RAM for          <psi|beta>:       0.03 MB

     Dynamical RAM for                 psi:       1.73 MB

     Dynamical RAM for                hpsi:       1.73 MB

     Dynamical RAM for                spsi:       1.73 MB

     Dynamical RAM for      wfcinit/wfcrot:       1.75 MB

     Dynamical RAM for           addusdens:     118.05 MB

     Dynamical RAM for          addusforce:     118.06 MB

     Dynamical RAM for         addusstress:     127.15 MB

     Estimated static dynamical RAM per process >     159.62 MB

     Estimated max dynamical RAM per process >     306.87 MB

     Atomic positions and unit cell read from directory:
     ./out/aiida.save/
 

     Check: negative core charge=   -0.000004
     Generating pointlists ...
     new r_m :   0.2526 (alat units)  2.1366 (a.u.) for type    1
     new r_m :   0.2526 (alat units)  2.1366 (a.u.) for type    2
     new r_m :   0.2526 (alat units)  2.1366 (a.u.) for type    3
     new r_m :   0.2526 (alat units)  2.1366 (a.u.) for type    4

     The initial density is read from file :
     ./out/aiida.save/charge-density


     negative rho (up, down):  2.115E-04 1.537E-03
     Starting wfcs from file

     total cpu time spent up to now is        3.3 secs

     per-process dynamical memory:   390.7 Mb

     Self-consistent Calculation
[tb_dev] Currently allocated     3.05E-05 Mbytes, locked:    0 /   2
[tb_pin] Currently allocated     0.00E+00 Mbytes, locked:    0 /   0

     iteration #  1     ecut=    40.00 Ry     beta= 0.20
     Davidson diagonalization with overlap

---- Real-time Memory Report at c_bands before calling an iterative solver
           497 MiB given to the printing process from OS
           383 MiB allocation reported by mallinfo(arena+hblkhd)
         59723 MiB available memory on the node where the printing process lives
     GPU memory used/free/total (MiB): 598 / 15682 / 16280
------------------
     ethr =  1.00E-05,  avg # of iterations =  1.0

     Threshold (ethr) on eigenvalues was too large:
     Diagonalizing with lowered threshold

     Davidson diagonalization with overlap

---- Real-time Memory Report at c_bands before calling an iterative solver
           981 MiB given to the printing process from OS
           820 MiB allocation reported by mallinfo(arena+hblkhd)
         58745 MiB available memory on the node where the printing process lives
     GPU memory used/free/total (MiB): 892 / 15388 / 16280
------------------
     ethr =  1.57E-08,  avg # of iterations =  1.0

     negative rho (up, down):  2.122E-04 1.535E-03

     total cpu time spent up to now is        8.3 secs

     total energy              =    -626.13787870 Ry
     estimated scf accuracy    <       0.00000816 Ry

     total magnetization       =     3.29 Bohr mag/cell
     absolute magnetization    =     3.46 Bohr mag/cell
[tb_dev] Currently allocated     1.53E+00 Mbytes, locked:    0 /  11
[tb_pin] Currently allocated     0.00E+00 Mbytes, locked:    0 /   0

     iteration #  2     ecut=    40.00 Ry     beta= 0.20
     Davidson diagonalization with overlap

---- Real-time Memory Report at c_bands before calling an iterative solver
          1010 MiB given to the printing process from OS
           825 MiB allocation reported by mallinfo(arena+hblkhd)
         58734 MiB available memory on the node where the printing process lives
     GPU memory used/free/total (MiB): 894 / 15386 / 16280
------------------
     ethr =  1.57E-08,  avg # of iterations =  2.1

     negative rho (up, down):  2.124E-04 1.535E-03

     total cpu time spent up to now is       10.8 secs

     total energy              =    -626.13787919 Ry
     estimated scf accuracy    <       0.00001590 Ry

     total magnetization       =     3.29 Bohr mag/cell
     absolute magnetization    =     3.46 Bohr mag/cell
[tb_dev] Currently allocated     1.53E+00 Mbytes, locked:    0 /  11
[tb_pin] Currently allocated     0.00E+00 Mbytes, locked:    0 /   0

     iteration #  3     ecut=    40.00 Ry     beta= 0.20
     Davidson diagonalization with overlap

---- Real-time Memory Report at c_bands before calling an iterative solver
          1012 MiB given to the printing process from OS
           826 MiB allocation reported by mallinfo(arena+hblkhd)
         58734 MiB available memory on the node where the printing process lives
     GPU memory used/free/total (MiB): 920 / 15360 / 16280
------------------
     ethr =  1.57E-08,  avg # of iterations =  1.0

     negative rho (up, down):  2.131E-04 1.533E-03

     total cpu time spent up to now is       13.0 secs

     total energy              =    -626.13788256 Ry
     estimated scf accuracy    <       0.00000640 Ry

     total magnetization       =     3.28 Bohr mag/cell
     absolute magnetization    =     3.45 Bohr mag/cell
[tb_dev] Currently allocated     1.53E+00 Mbytes, locked:    0 /  11
[tb_pin] Currently allocated     0.00E+00 Mbytes, locked:    0 /   0

     iteration #  4     ecut=    40.00 Ry     beta= 0.20
     Davidson diagonalization with overlap

---- Real-time Memory Report at c_bands before calling an iterative solver
          1015 MiB given to the printing process from OS
           827 MiB allocation reported by mallinfo(arena+hblkhd)
         58733 MiB available memory on the node where the printing process lives
     GPU memory used/free/total (MiB): 920 / 15360 / 16280
------------------
     ethr =  1.23E-08,  avg # of iterations =  1.3

     negative rho (up, down):  2.124E-04 1.535E-03

     total cpu time spent up to now is       15.3 secs

     total energy              =    -626.13787979 Ry
     estimated scf accuracy    <       0.00000563 Ry

     total magnetization       =     3.28 Bohr mag/cell
     absolute magnetization    =     3.45 Bohr mag/cell
[tb_dev] Currently allocated     1.53E+00 Mbytes, locked:    0 /  11
[tb_pin] Currently allocated     0.00E+00 Mbytes, locked:    0 /   0

     iteration #  5     ecut=    40.00 Ry     beta= 0.20
     Davidson diagonalization with overlap

---- Real-time Memory Report at c_bands before calling an iterative solver
          1017 MiB given to the printing process from OS
           828 MiB allocation reported by mallinfo(arena+hblkhd)
         58730 MiB available memory on the node where the printing process lives
     GPU memory used/free/total (MiB): 920 / 15360 / 16280
------------------
     ethr =  1.08E-08,  avg # of iterations =  1.0

     negative rho (up, down):  2.133E-04 1.533E-03

     total cpu time spent up to now is       17.4 secs

     total energy              =    -626.13788324 Ry
     estimated scf accuracy    <       0.00000543 Ry

     total magnetization       =     3.28 Bohr mag/cell
     absolute magnetization    =     3.45 Bohr mag/cell
[tb_dev] Currently allocated     1.53E+00 Mbytes, locked:    0 /  11
[tb_pin] Currently allocated     0.00E+00 Mbytes, locked:    0 /   0

     iteration #  6     ecut=    40.00 Ry     beta= 0.20
     Davidson diagonalization with overlap

---- Real-time Memory Report at c_bands before calling an iterative solver
          1019 MiB given to the printing process from OS
           829 MiB allocation reported by mallinfo(arena+hblkhd)
         58730 MiB available memory on the node where the printing process lives
     GPU memory used/free/total (MiB): 920 / 15360 / 16280
------------------
     ethr =  1.04E-08,  avg # of iterations =  1.3

     negative rho (up, down):  2.049E-04 1.528E-03

     total cpu time spent up to now is       19.8 secs

     total energy              =    -626.13780507 Ry
     estimated scf accuracy    <       0.00000566 Ry

     total magnetization       =     3.27 Bohr mag/cell
     absolute magnetization    =     3.45 Bohr mag/cell
[tb_dev] Currently allocated     1.53E+00 Mbytes, locked:    0 /  11
[tb_pin] Currently allocated     0.00E+00 Mbytes, locked:    0 /   0

     iteration #  7     ecut=    40.00 Ry     beta= 0.20
     Davidson diagonalization with overlap

---- Real-time Memory Report at c_bands before calling an iterative solver
          1022 MiB given to the printing process from OS
           830 MiB allocation reported by mallinfo(arena+hblkhd)
         58729 MiB available memory on the node where the printing process lives
     GPU memory used/free/total (MiB): 920 / 15360 / 16280
------------------
     ethr =  1.04E-08,  avg # of iterations =  5.0

     negative rho (up, down):  1.967E-04 1.533E-03

     total cpu time spent up to now is       24.2 secs

     total energy              =    -626.13779059 Ry
     estimated scf accuracy    <       0.00003377 Ry

     total magnetization       =     3.34 Bohr mag/cell
     absolute magnetization    =     3.51 Bohr mag/cell
[tb_dev] Currently allocated     1.53E+00 Mbytes, locked:    0 /  11
[tb_pin] Currently allocated     0.00E+00 Mbytes, locked:    0 /   0

     iteration #  8     ecut=    40.00 Ry     beta= 0.20
     Davidson diagonalization with overlap

---- Real-time Memory Report at c_bands before calling an iterative solver
          1024 MiB given to the printing process from OS
           831 MiB allocation reported by mallinfo(arena+hblkhd)
         58728 MiB available memory on the node where the printing process lives
     GPU memory used/free/total (MiB): 944 / 15336 / 16280
------------------
     ethr =  1.04E-08,  avg # of iterations =  5.6

     negative rho (up, down):  2.113E-04 1.546E-03

     total cpu time spent up to now is       29.0 secs

     total energy              =    -626.13772521 Ry
     estimated scf accuracy    <       0.00000488 Ry

     total magnetization       =     3.41 Bohr mag/cell
     absolute magnetization    =     3.58 Bohr mag/cell
[tb_dev] Currently allocated     1.53E+00 Mbytes, locked:    0 /  11
[tb_pin] Currently allocated     0.00E+00 Mbytes, locked:    0 /   0

     iteration #  9     ecut=    40.00 Ry     beta= 0.20
     Davidson diagonalization with overlap

---- Real-time Memory Report at c_bands before calling an iterative solver
          1026 MiB given to the printing process from OS
           832 MiB allocation reported by mallinfo(arena+hblkhd)
         58725 MiB available memory on the node where the printing process lives
     GPU memory used/free/total (MiB): 980 / 15300 / 16280
------------------
     ethr =  9.38E-09,  avg # of iterations =  6.7

     negative rho (up, down):  1.976E-04 1.531E-03

     total cpu time spent up to now is       34.5 secs

     total energy              =    -626.13770732 Ry
     estimated scf accuracy    <       0.00001578 Ry

     total magnetization       =     3.29 Bohr mag/cell
     absolute magnetization    =     3.47 Bohr mag/cell
[tb_dev] Currently allocated     1.53E+00 Mbytes, locked:    0 /  11
[tb_pin] Currently allocated     0.00E+00 Mbytes, locked:    0 /   0

     iteration # 10     ecut=    40.00 Ry     beta= 0.20
     Davidson diagonalization with overlap

---- Real-time Memory Report at c_bands before calling an iterative solver
          1029 MiB given to the printing process from OS
           833 MiB allocation reported by mallinfo(arena+hblkhd)
         58725 MiB available memory on the node where the printing process lives
     GPU memory used/free/total (MiB): 980 / 15300 / 16280
------------------
     ethr =  9.38E-09,  avg # of iterations =  6.6

     negative rho (up, down):  1.925E-04 1.535E-03

     total cpu time spent up to now is       39.8 secs

     total energy              =    -626.13781677 Ry
     estimated scf accuracy    <       0.00000326 Ry

     total magnetization       =     3.40 Bohr mag/cell
     absolute magnetization    =     3.57 Bohr mag/cell
[tb_dev] Currently allocated     1.53E+00 Mbytes, locked:    0 /  11
[tb_pin] Currently allocated     0.00E+00 Mbytes, locked:    0 /   0

     iteration # 11     ecut=    40.00 Ry     beta= 0.20
     Davidson diagonalization with overlap

---- Real-time Memory Report at c_bands before calling an iterative solver
          1029 MiB given to the printing process from OS
           833 MiB allocation reported by mallinfo(arena+hblkhd)
         58725 MiB available memory on the node where the printing process lives
     GPU memory used/free/total (MiB): 980 / 15300 / 16280
------------------
     ethr =  6.26E-09,  avg # of iterations =  5.2

     negative rho (up, down):  1.779E-04 1.545E-03

     total cpu time spent up to now is       44.4 secs

     total energy              =    -626.13767357 Ry
     estimated scf accuracy    <       0.00000175 Ry

     total magnetization       =     3.44 Bohr mag/cell
     absolute magnetization    =     3.61 Bohr mag/cell
[tb_dev] Currently allocated     1.53E+00 Mbytes, locked:    0 /  11
[tb_pin] Currently allocated     0.00E+00 Mbytes, locked:    0 /   0

     iteration # 12     ecut=    40.00 Ry     beta= 0.20
     Davidson diagonalization with overlap

---- Real-time Memory Report at c_bands before calling an iterative solver
          1029 MiB given to the printing process from OS
           833 MiB allocation reported by mallinfo(arena+hblkhd)
         58725 MiB available memory on the node where the printing process lives
     GPU memory used/free/total (MiB): 980 / 15300 / 16280
------------------
     ethr =  3.37E-09,  avg # of iterations =  7.7

     negative rho (up, down):  1.767E-04 1.545E-03

     total cpu time spent up to now is       50.4 secs

     total energy              =    -626.13781419 Ry
     estimated scf accuracy    <       0.00000086 Ry

     total magnetization       =     3.54 Bohr mag/cell
     absolute magnetization    =     3.71 Bohr mag/cell
[tb_dev] Currently allocated     1.53E+00 Mbytes, locked:    0 /  11
[tb_pin] Currently allocated     0.00E+00 Mbytes, locked:    0 /   0

     iteration # 13     ecut=    40.00 Ry     beta= 0.20
     Davidson diagonalization with overlap

---- Real-time Memory Report at c_bands before calling an iterative solver
          1029 MiB given to the printing process from OS
           833 MiB allocation reported by mallinfo(arena+hblkhd)
         58725 MiB available memory on the node where the printing process lives
     GPU memory used/free/total (MiB): 980 / 15300 / 16280
------------------
     ethr =  1.66E-09,  avg # of iterations =  4.2

     negative rho (up, down):  1.918E-04 1.535E-03

     total cpu time spent up to now is       54.1 secs

     total energy              =    -626.13768542 Ry
     estimated scf accuracy    <       0.00000268 Ry

     total magnetization       =     3.54 Bohr mag/cell
     absolute magnetization    =     3.72 Bohr mag/cell
[tb_dev] Currently allocated     1.53E+00 Mbytes, locked:    0 /  11
[tb_pin] Currently allocated     0.00E+00 Mbytes, locked:    0 /   0

     iteration # 14     ecut=    40.00 Ry     beta= 0.20
     Davidson diagonalization with overlap

---- Real-time Memory Report at c_bands before calling an iterative solver
          1029 MiB given to the printing process from OS
           833 MiB allocation reported by mallinfo(arena+hblkhd)
         58725 MiB available memory on the node where the printing process lives
     GPU memory used/free/total (MiB): 980 / 15300 / 16280
------------------
     ethr =  1.66E-09,  avg # of iterations =  8.3

     negative rho (up, down):  1.934E-04 1.533E-03

     total cpu time spent up to now is       60.9 secs

     total energy              =    -626.13783429 Ry
     estimated scf accuracy    <       0.00000107 Ry

     total magnetization       =     3.44 Bohr mag/cell
     absolute magnetization    =     3.61 Bohr mag/cell
[tb_dev] Currently allocated     1.53E+00 Mbytes, locked:    0 /  11
[tb_pin] Currently allocated     0.00E+00 Mbytes, locked:    0 /   0

     iteration # 15     ecut=    40.00 Ry     beta= 0.20
     Davidson diagonalization with overlap

---- Real-time Memory Report at c_bands before calling an iterative solver
          1029 MiB given to the printing process from OS
           833 MiB allocation reported by mallinfo(arena+hblkhd)
         58726 MiB available memory on the node where the printing process lives
     GPU memory used/free/total (MiB): 980 / 15300 / 16280
------------------
     ethr =  1.66E-09,  avg # of iterations =  4.4

     negative rho (up, down):  1.985E-04 1.530E-03

     total cpu time spent up to now is       64.7 secs

     total energy              =    -626.13782668 Ry
     estimated scf accuracy    <       0.00000152 Ry

     total magnetization       =     3.43 Bohr mag/cell
     absolute magnetization    =     3.60 Bohr mag/cell
[tb_dev] Currently allocated     1.53E+00 Mbytes, locked:    0 /  11
[tb_pin] Currently allocated     0.00E+00 Mbytes, locked:    0 /   0

     iteration # 16     ecut=    40.00 Ry     beta= 0.20
     Davidson diagonalization with overlap

---- Real-time Memory Report at c_bands before calling an iterative solver
          1029 MiB given to the printing process from OS
           833 MiB allocation reported by mallinfo(arena+hblkhd)
         58726 MiB available memory on the node where the printing process lives
     GPU memory used/free/total (MiB): 980 / 15300 / 16280
------------------
     ethr =  1.66E-09,  avg # of iterations =  6.3

     negative rho (up, down):  1.927E-04 1.534E-03

     total cpu time spent up to now is       69.9 secs

     total energy              =    -626.13781265 Ry
     estimated scf accuracy    <       0.00000251 Ry

     total magnetization       =     3.39 Bohr mag/cell
     absolute magnetization    =     3.56 Bohr mag/cell
[tb_dev] Currently allocated     1.53E+00 Mbytes, locked:    0 /  11
[tb_pin] Currently allocated     0.00E+00 Mbytes, locked:    0 /   0

     iteration # 17     ecut=    40.00 Ry     beta= 0.20
     Davidson diagonalization with overlap

---- Real-time Memory Report at c_bands before calling an iterative solver
          1029 MiB given to the printing process from OS
           833 MiB allocation reported by mallinfo(arena+hblkhd)
         58727 MiB available memory on the node where the printing process lives
     GPU memory used/free/total (MiB): 980 / 15300 / 16280
------------------
     ethr =  1.66E-09,  avg # of iterations =  6.4

     negative rho (up, down):  1.931E-04 1.534E-03

     total cpu time spent up to now is       75.4 secs

     total energy              =    -626.13783564 Ry
     estimated scf accuracy    <       0.00000159 Ry

     total magnetization       =     3.43 Bohr mag/cell
     absolute magnetization    =     3.60 Bohr mag/cell
[tb_dev] Currently allocated     1.53E+00 Mbytes, locked:    0 /  11
[tb_pin] Currently allocated     0.00E+00 Mbytes, locked:    0 /   0

     iteration # 18     ecut=    40.00 Ry     beta= 0.20
     Davidson diagonalization with overlap

---- Real-time Memory Report at c_bands before calling an iterative solver
          1029 MiB given to the printing process from OS
           833 MiB allocation reported by mallinfo(arena+hblkhd)
         58727 MiB available memory on the node where the printing process lives
     GPU memory used/free/total (MiB): 980 / 15300 / 16280
------------------
     ethr =  1.66E-09,  avg # of iterations =  1.0

     negative rho (up, down):  1.927E-04 1.534E-03

     total cpu time spent up to now is       77.5 secs

     total energy              =    -626.13783511 Ry
     estimated scf accuracy    <       0.00000166 Ry

     total magnetization       =     3.43 Bohr mag/cell
     absolute magnetization    =     3.60 Bohr mag/cell
[tb_dev] Currently allocated     1.53E+00 Mbytes, locked:    0 /  11
[tb_pin] Currently allocated     0.00E+00 Mbytes, locked:    0 /   0

     iteration # 19     ecut=    40.00 Ry     beta= 0.20
     Davidson diagonalization with overlap

---- Real-time Memory Report at c_bands before calling an iterative solver
          1029 MiB given to the printing process from OS
           833 MiB allocation reported by mallinfo(arena+hblkhd)
         58726 MiB available memory on the node where the printing process lives
     GPU memory used/free/total (MiB): 980 / 15300 / 16280
------------------
     ethr =  1.66E-09,  avg # of iterations =  1.0

     negative rho (up, down):  1.734E-04 1.547E-03

     total cpu time spent up to now is       79.8 secs

     total energy              =    -626.13756717 Ry
     estimated scf accuracy    <       0.00000162 Ry

     total magnetization       =     3.43 Bohr mag/cell
     absolute magnetization    =     3.60 Bohr mag/cell
[tb_dev] Currently allocated     1.53E+00 Mbytes, locked:    0 /  11
[tb_pin] Currently allocated     0.00E+00 Mbytes, locked:    0 /   0

     iteration # 20     ecut=    40.00 Ry     beta= 0.20
     Davidson diagonalization with overlap

---- Real-time Memory Report at c_bands before calling an iterative solver
          1029 MiB given to the printing process from OS
           833 MiB allocation reported by mallinfo(arena+hblkhd)
         58727 MiB available memory on the node where the printing process lives
     GPU memory used/free/total (MiB): 980 / 15300 / 16280
------------------
     ethr =  1.66E-09,  avg # of iterations =  8.9

     negative rho (up, down):  1.776E-04 1.545E-03

     total cpu time spent up to now is       86.8 secs

     total energy              =    -626.13780550 Ry
     estimated scf accuracy    <       0.00000403 Ry

     total magnetization       =     3.56 Bohr mag/cell
     absolute magnetization    =     3.73 Bohr mag/cell
[tb_dev] Currently allocated     1.53E+00 Mbytes, locked:    0 /  11
[tb_pin] Currently allocated     0.00E+00 Mbytes, locked:    0 /   0

     iteration # 21     ecut=    40.00 Ry     beta= 0.20
     Davidson diagonalization with overlap

---- Real-time Memory Report at c_bands before calling an iterative solver
          1029 MiB given to the printing process from OS
           833 MiB allocation reported by mallinfo(arena+hblkhd)
         58727 MiB available memory on the node where the printing process lives
     GPU memory used/free/total (MiB): 980 / 15300 / 16280
------------------
     ethr =  1.66E-09,  avg # of iterations =  5.8

     negative rho (up, down):  1.826E-04 1.541E-03

     total cpu time spent up to now is       91.7 secs

     total energy              =    -626.13780696 Ry
     estimated scf accuracy    <       0.00000367 Ry

     total magnetization       =     3.53 Bohr mag/cell
     absolute magnetization    =     3.70 Bohr mag/cell
[tb_dev] Currently allocated     1.53E+00 Mbytes, locked:    0 /  11
[tb_pin] Currently allocated     0.00E+00 Mbytes, locked:    0 /   0

     iteration # 22     ecut=    40.00 Ry     beta= 0.20
     Davidson diagonalization with overlap

---- Real-time Memory Report at c_bands before calling an iterative solver
          1029 MiB given to the printing process from OS
           833 MiB allocation reported by mallinfo(arena+hblkhd)
         58727 MiB available memory on the node where the printing process lives
     GPU memory used/free/total (MiB): 980 / 15300 / 16280
------------------
     ethr =  1.66E-09,  avg # of iterations =  6.3

     negative rho (up, down):  1.546E-04 1.560E-03

     total cpu time spent up to now is       96.8 secs

     total energy              =    -626.13728212 Ry
     estimated scf accuracy    <       0.00000232 Ry

     total magnetization       =     3.50 Bohr mag/cell
     absolute magnetization    =     3.67 Bohr mag/cell
[tb_dev] Currently allocated     1.53E+00 Mbytes, locked:    0 /  11
[tb_pin] Currently allocated     0.00E+00 Mbytes, locked:    0 /   0

     iteration # 23     ecut=    40.00 Ry     beta= 0.20
     Davidson diagonalization with overlap

---- Real-time Memory Report at c_bands before calling an iterative solver
          1029 MiB given to the printing process from OS
           833 MiB allocation reported by mallinfo(arena+hblkhd)
         58727 MiB available memory on the node where the printing process lives
     GPU memory used/free/total (MiB): 980 / 15300 / 16280
------------------
     ethr =  1.66E-09,  avg # of iterations =  9.7

     negative rho (up, down):  1.504E-04 1.563E-03

     total cpu time spent up to now is      104.2 secs

     total energy              =    -626.13774707 Ry
     estimated scf accuracy    <       0.00001057 Ry

     total magnetization       =     3.68 Bohr mag/cell
     absolute magnetization    =     3.85 Bohr mag/cell
[tb_dev] Currently allocated     1.53E+00 Mbytes, locked:    0 /  11
[tb_pin] Currently allocated     0.00E+00 Mbytes, locked:    0 /   0

     iteration # 24     ecut=    40.00 Ry     beta= 0.20
     Davidson diagonalization with overlap

---- Real-time Memory Report at c_bands before calling an iterative solver
          1029 MiB given to the printing process from OS
           833 MiB allocation reported by mallinfo(arena+hblkhd)
         58728 MiB available memory on the node where the printing process lives
     GPU memory used/free/total (MiB): 980 / 15300 / 16280
------------------
     ethr =  1.66E-09,  avg # of iterations =  5.9

     negative rho (up, down):  1.849E-04 1.540E-03

     total cpu time spent up to now is      109.1 secs

     total energy              =    -626.13709870 Ry
     estimated scf accuracy    <       0.00001298 Ry

     total magnetization       =     3.70 Bohr mag/cell
     absolute magnetization    =     3.87 Bohr mag/cell
[tb_dev] Currently allocated     1.53E+00 Mbytes, locked:    0 /  11
[tb_pin] Currently allocated     0.00E+00 Mbytes, locked:    0 /   0

     iteration # 25     ecut=    40.00 Ry     beta= 0.20
     Davidson diagonalization with overlap

---- Real-time Memory Report at c_bands before calling an iterative solver
          1029 MiB given to the printing process from OS
           833 MiB allocation reported by mallinfo(arena+hblkhd)
         58728 MiB available memory on the node where the printing process lives
     GPU memory used/free/total (MiB): 980 / 15300 / 16280
------------------
     ethr =  1.66E-09,  avg # of iterations = 10.6

     negative rho (up, down):  2.183E-04 1.561E-03

     total cpu time spent up to now is      117.3 secs

     total energy              =    -626.13714307 Ry
     estimated scf accuracy    <       0.00000120 Ry

     total magnetization       =     3.49 Bohr mag/cell
     absolute magnetization    =     3.66 Bohr mag/cell
[tb_dev] Currently allocated     1.53E+00 Mbytes, locked:    0 /  11
[tb_pin] Currently allocated     0.00E+00 Mbytes, locked:    0 /   0

     iteration # 26     ecut=    40.00 Ry     beta= 0.20
     Davidson diagonalization with overlap

---- Real-time Memory Report at c_bands before calling an iterative solver
          1029 MiB given to the printing process from OS
           833 MiB allocation reported by mallinfo(arena+hblkhd)
         58728 MiB available memory on the node where the printing process lives
     GPU memory used/free/total (MiB): 980 / 15300 / 16280
------------------
     ethr =  1.66E-09,  avg # of iterations = 10.8

     negative rho (up, down):  1.791E-04 1.543E-03

     total cpu time spent up to now is      125.6 secs

     total energy              =    -626.13671266 Ry
     estimated scf accuracy    <       0.00001707 Ry

     total magnetization       =     3.23 Bohr mag/cell
     absolute magnetization    =     3.41 Bohr mag/cell
[tb_dev] Currently allocated     1.53E+00 Mbytes, locked:    0 /  11
[tb_pin] Currently allocated     0.00E+00 Mbytes, locked:    0 /   0

     iteration # 27     ecut=    40.00 Ry     beta= 0.20
     Davidson diagonalization with overlap

---- Real-time Memory Report at c_bands before calling an iterative solver
          1029 MiB given to the printing process from OS
           833 MiB allocation reported by mallinfo(arena+hblkhd)
         58728 MiB available memory on the node where the printing process lives
     GPU memory used/free/total (MiB): 980 / 15300 / 16280
------------------
     ethr =  1.66E-09,  avg # of iterations = 11.2

     negative rho (up, down):  1.770E-04 1.545E-03

     total cpu time spent up to now is      133.8 secs

     total energy              =    -626.13781272 Ry
     estimated scf accuracy    <       0.00000135 Ry

     total magnetization       =     3.52 Bohr mag/cell
     absolute magnetization    =     3.70 Bohr mag/cell
[tb_dev] Currently allocated     1.53E+00 Mbytes, locked:    0 /  11
[tb_pin] Currently allocated     0.00E+00 Mbytes, locked:    0 /   0

     iteration # 28     ecut=    40.00 Ry     beta= 0.20
     Davidson diagonalization with overlap

---- Real-time Memory Report at c_bands before calling an iterative solver
          1029 MiB given to the printing process from OS
           833 MiB allocation reported by mallinfo(arena+hblkhd)
         58729 MiB available memory on the node where the printing process lives
     GPU memory used/free/total (MiB): 980 / 15300 / 16280
------------------
     ethr =  1.66E-09,  avg # of iterations =  5.1

     negative rho (up, down):  1.675E-04 1.551E-03

     total cpu time spent up to now is      138.1 secs

     total energy              =    -626.13774538 Ry
     estimated scf accuracy    <       0.00000148 Ry

     total magnetization       =     3.54 Bohr mag/cell
     absolute magnetization    =     3.71 Bohr mag/cell
[tb_dev] Currently allocated     1.53E+00 Mbytes, locked:    0 /  11
[tb_pin] Currently allocated     0.00E+00 Mbytes, locked:    0 /   0

     iteration # 29     ecut=    40.00 Ry     beta= 0.20
     Davidson diagonalization with overlap

---- Real-time Memory Report at c_bands before calling an iterative solver
          1029 MiB given to the printing process from OS
           833 MiB allocation reported by mallinfo(arena+hblkhd)
         58729 MiB available memory on the node where the printing process lives
     GPU memory used/free/total (MiB): 980 / 15300 / 16280
------------------
     ethr =  1.66E-09,  avg # of iterations =  7.6

     negative rho (up, down):  1.807E-04 1.542E-03

     total cpu time spent up to now is      144.1 secs

     total energy              =    -626.13771222 Ry
     estimated scf accuracy    <       0.00000272 Ry

     total magnetization       =     3.60 Bohr mag/cell
     absolute magnetization    =     3.77 Bohr mag/cell
[tb_dev] Currently allocated     1.53E+00 Mbytes, locked:    0 /  11
[tb_pin] Currently allocated     0.00E+00 Mbytes, locked:    0 /   0

     iteration # 30     ecut=    40.00 Ry     beta= 0.20
     Davidson diagonalization with overlap

---- Real-time Memory Report at c_bands before calling an iterative solver
          1029 MiB given to the printing process from OS
           833 MiB allocation reported by mallinfo(arena+hblkhd)
         58728 MiB available memory on the node where the printing process lives
     GPU memory used/free/total (MiB): 980 / 15300 / 16280
------------------
     ethr =  1.66E-09,  avg # of iterations =  8.0

     negative rho (up, down):  1.813E-04 1.542E-03

     total cpu time spent up to now is      150.3 secs

     total energy              =    -626.13782090 Ry
     estimated scf accuracy    <       0.00000124 Ry

     total magnetization       =     3.51 Bohr mag/cell
     absolute magnetization    =     3.68 Bohr mag/cell
[tb_dev] Currently allocated     1.53E+00 Mbytes, locked:    0 /  11
[tb_pin] Currently allocated     0.00E+00 Mbytes, locked:    0 /   0

     iteration # 31     ecut=    40.00 Ry     beta= 0.20
     Davidson diagonalization with overlap

---- Real-time Memory Report at c_bands before calling an iterative solver
          1029 MiB given to the printing process from OS
           833 MiB allocation reported by mallinfo(arena+hblkhd)
         58728 MiB available memory on the node where the printing process lives
     GPU memory used/free/total (MiB): 980 / 15300 / 16280
------------------
     ethr =  1.66E-09,  avg # of iterations =  2.2

     negative rho (up, down):  1.798E-04 1.543E-03

     total cpu time spent up to now is      152.9 secs

     total energy              =    -626.13781806 Ry
     estimated scf accuracy    <       0.00000124 Ry

     total magnetization       =     3.51 Bohr mag/cell
     absolute magnetization    =     3.68 Bohr mag/cell
[tb_dev] Currently allocated     1.53E+00 Mbytes, locked:    0 /  11
[tb_pin] Currently allocated     0.00E+00 Mbytes, locked:    0 /   0

     iteration # 32     ecut=    40.00 Ry     beta= 0.20
     Davidson diagonalization with overlap

---- Real-time Memory Report at c_bands before calling an iterative solver
          1029 MiB given to the printing process from OS
           833 MiB allocation reported by mallinfo(arena+hblkhd)
         58728 MiB available memory on the node where the printing process lives
     GPU memory used/free/total (MiB): 980 / 15300 / 16280
------------------
     ethr =  1.66E-09,  avg # of iterations =  3.2

     negative rho (up, down):  1.895E-04 1.536E-03

     total cpu time spent up to now is      156.1 secs

     total energy              =    -626.13777155 Ry
     estimated scf accuracy    <       0.00000135 Ry

     total magnetization       =     3.52 Bohr mag/cell
     absolute magnetization    =     3.69 Bohr mag/cell
[tb_dev] Currently allocated     1.53E+00 Mbytes, locked:    0 /  11
[tb_pin] Currently allocated     0.00E+00 Mbytes, locked:    0 /   0

     iteration # 33     ecut=    40.00 Ry     beta= 0.20
     Davidson diagonalization with overlap

---- Real-time Memory Report at c_bands before calling an iterative solver
          1029 MiB given to the printing process from OS
           833 MiB allocation reported by mallinfo(arena+hblkhd)
         58728 MiB available memory on the node where the printing process lives
     GPU memory used/free/total (MiB): 980 / 15300 / 16280
------------------
     ethr =  1.66E-09,  avg # of iterations =  7.5

     negative rho (up, down):  1.856E-04 1.539E-03

     total cpu time spent up to now is      162.0 secs

     total energy              =    -626.13781679 Ry
     estimated scf accuracy    <       0.00000132 Ry

     total magnetization       =     3.45 Bohr mag/cell
     absolute magnetization    =     3.62 Bohr mag/cell
[tb_dev] Currently allocated     1.53E+00 Mbytes, locked:    0 /  11
[tb_pin] Currently allocated     0.00E+00 Mbytes, locked:    0 /   0

     iteration # 34     ecut=    40.00 Ry     beta= 0.20
     Davidson diagonalization with overlap

---- Real-time Memory Report at c_bands before calling an iterative solver
          1029 MiB given to the printing process from OS
           833 MiB allocation reported by mallinfo(arena+hblkhd)
         58729 MiB available memory on the node where the printing process lives
     GPU memory used/free/total (MiB): 980 / 15300 / 16280
------------------
     ethr =  1.66E-09,  avg # of iterations =  5.7

     negative rho (up, down):  1.840E-04 1.540E-03

     total cpu time spent up to now is      166.8 secs

     total energy              =    -626.13782268 Ry
     estimated scf accuracy    <       0.00000117 Ry

     total magnetization       =     3.48 Bohr mag/cell
     absolute magnetization    =     3.65 Bohr mag/cell
[tb_dev] Currently allocated     1.53E+00 Mbytes, locked:    0 /  11
[tb_pin] Currently allocated     0.00E+00 Mbytes, locked:    0 /   0

     iteration # 35     ecut=    40.00 Ry     beta= 0.20
     Davidson diagonalization with overlap

---- Real-time Memory Report at c_bands before calling an iterative solver
          1029 MiB given to the printing process from OS
           833 MiB allocation reported by mallinfo(arena+hblkhd)
         58728 MiB available memory on the node where the printing process lives
     GPU memory used/free/total (MiB): 980 / 15300 / 16280
------------------
     ethr =  1.66E-09,  avg # of iterations =  4.3

     negative rho (up, down):  1.996E-04 1.529E-03

     total cpu time spent up to now is      170.6 secs

     total energy              =    -626.13768548 Ry
     estimated scf accuracy    <       0.00000121 Ry

     total magnetization       =     3.49 Bohr mag/cell
     absolute magnetization    =     3.66 Bohr mag/cell
[tb_dev] Currently allocated     1.53E+00 Mbytes, locked:    0 /  11
[tb_pin] Currently allocated     0.00E+00 Mbytes, locked:    0 /   0

     iteration # 36     ecut=    40.00 Ry     beta= 0.20
     Davidson diagonalization with overlap

---- Real-time Memory Report at c_bands before calling an iterative solver
          1029 MiB given to the printing process from OS
           833 MiB allocation reported by mallinfo(arena+hblkhd)
         58729 MiB available memory on the node where the printing process lives
     GPU memory used/free/total (MiB): 980 / 15300 / 16280
------------------
     ethr =  1.66E-09,  avg # of iterations =  8.3

     negative rho (up, down):  1.782E-04 1.544E-03

     total cpu time spent up to now is      177.0 secs

     total energy              =    -626.13750876 Ry
     estimated scf accuracy    <       0.00000257 Ry

     total magnetization       =     3.38 Bohr mag/cell
     absolute magnetization    =     3.55 Bohr mag/cell
[tb_dev] Currently allocated     1.53E+00 Mbytes, locked:    0 /  11
[tb_pin] Currently allocated     0.00E+00 Mbytes, locked:    0 /   0

     iteration # 37     ecut=    40.00 Ry     beta= 0.20
     Davidson diagonalization with overlap

---- Real-time Memory Report at c_bands before calling an iterative solver
          1029 MiB given to the printing process from OS
           833 MiB allocation reported by mallinfo(arena+hblkhd)
         58729 MiB available memory on the node where the printing process lives
     GPU memory used/free/total (MiB): 980 / 15300 / 16280
------------------
     ethr =  1.66E-09,  avg # of iterations =  9.2

     negative rho (up, down):  1.838E-04 1.540E-03

     total cpu time spent up to now is      184.0 secs

     total energy              =    -626.13780409 Ry
     estimated scf accuracy    <       0.00000172 Ry

     total magnetization       =     3.53 Bohr mag/cell
     absolute magnetization    =     3.70 Bohr mag/cell
[tb_dev] Currently allocated     1.53E+00 Mbytes, locked:    0 /  11
[tb_pin] Currently allocated     0.00E+00 Mbytes, locked:    0 /   0

     iteration # 38     ecut=    40.00 Ry     beta= 0.20
     Davidson diagonalization with overlap

---- Real-time Memory Report at c_bands before calling an iterative solver
          1029 MiB given to the printing process from OS
           833 MiB allocation reported by mallinfo(arena+hblkhd)
         58729 MiB available memory on the node where the printing process lives
     GPU memory used/free/total (MiB): 980 / 15300 / 16280
------------------
     ethr =  1.66E-09,  avg # of iterations =  6.3

     negative rho (up, down):  1.808E-04 1.542E-03

     total cpu time spent up to now is      189.2 secs

     total energy              =    -626.13781462 Ry
     estimated scf accuracy    <       0.00000109 Ry

     total magnetization       =     3.49 Bohr mag/cell
     absolute magnetization    =     3.66 Bohr mag/cell
[tb_dev] Currently allocated     1.53E+00 Mbytes, locked:    0 /  11
[tb_pin] Currently allocated     0.00E+00 Mbytes, locked:    0 /   0

     iteration # 39     ecut=    40.00 Ry     beta= 0.20
     Davidson diagonalization with overlap

---- Real-time Memory Report at c_bands before calling an iterative solver
          1029 MiB given to the printing process from OS
           833 MiB allocation reported by mallinfo(arena+hblkhd)
         58729 MiB available memory on the node where the printing process lives
     GPU memory used/free/total (MiB): 980 / 15300 / 16280
------------------
     ethr =  1.66E-09,  avg # of iterations =  5.3

     negative rho (up, down):  1.806E-04 1.542E-03

     total cpu time spent up to now is      193.7 secs

     total energy              =    -626.13782039 Ry
     estimated scf accuracy    <       0.00000115 Ry

     total magnetization       =     3.51 Bohr mag/cell
     absolute magnetization    =     3.68 Bohr mag/cell
[tb_dev] Currently allocated     1.53E+00 Mbytes, locked:    0 /  11
[tb_pin] Currently allocated     0.00E+00 Mbytes, locked:    0 /   0

     iteration # 40     ecut=    40.00 Ry     beta= 0.20
     Davidson diagonalization with overlap

---- Real-time Memory Report at c_bands before calling an iterative solver
          1029 MiB given to the printing process from OS
           833 MiB allocation reported by mallinfo(arena+hblkhd)
         58729 MiB available memory on the node where the printing process lives
     GPU memory used/free/total (MiB): 980 / 15300 / 16280
------------------
     ethr =  1.66E-09,  avg # of iterations =  1.0

     negative rho (up, down):  1.854E-04 1.539E-03

     total cpu time spent up to now is      195.9 secs

     total energy              =    -626.13781144 Ry
     estimated scf accuracy    <       0.00000113 Ry

     total magnetization       =     3.51 Bohr mag/cell
     absolute magnetization    =     3.68 Bohr mag/cell
[tb_dev] Currently allocated     1.53E+00 Mbytes, locked:    0 /  11
[tb_pin] Currently allocated     0.00E+00 Mbytes, locked:    0 /   0

     iteration # 41     ecut=    40.00 Ry     beta= 0.20
     Davidson diagonalization with overlap

---- Real-time Memory Report at c_bands before calling an iterative solver
          1029 MiB given to the printing process from OS
           833 MiB allocation reported by mallinfo(arena+hblkhd)
         58729 MiB available memory on the node where the printing process lives
     GPU memory used/free/total (MiB): 980 / 15300 / 16280
------------------
     ethr =  1.66E-09,  avg # of iterations =  6.0

     negative rho (up, down):  1.832E-04 1.540E-03

     total cpu time spent up to now is      201.0 secs

     total energy              =    -626.13782029 Ry
     estimated scf accuracy    <       0.00000093 Ry

     total magnetization       =     3.48 Bohr mag/cell
     absolute magnetization    =     3.65 Bohr mag/cell
[tb_dev] Currently allocated     1.53E+00 Mbytes, locked:    0 /  11
[tb_pin] Currently allocated     0.00E+00 Mbytes, locked:    0 /   0

     iteration # 42     ecut=    40.00 Ry     beta= 0.20
     Davidson diagonalization with overlap

---- Real-time Memory Report at c_bands before calling an iterative solver
          1029 MiB given to the printing process from OS
           833 MiB allocation reported by mallinfo(arena+hblkhd)
         58729 MiB available memory on the node where the printing process lives
     GPU memory used/free/total (MiB): 980 / 15300 / 16280
------------------
     ethr =  1.66E-09,  avg # of iterations =  4.7

     negative rho (up, down):  1.847E-04 1.539E-03

     total cpu time spent up to now is      205.1 secs

     total energy              =    -626.13782380 Ry
     estimated scf accuracy    <       0.00000103 Ry

     total magnetization       =     3.50 Bohr mag/cell
     absolute magnetization    =     3.67 Bohr mag/cell
[tb_dev] Currently allocated     1.53E+00 Mbytes, locked:    0 /  11
[tb_pin] Currently allocated     0.00E+00 Mbytes, locked:    0 /   0

     iteration # 43     ecut=    40.00 Ry     beta= 0.20
     Davidson diagonalization with overlap

---- Real-time Memory Report at c_bands before calling an iterative solver
          1029 MiB given to the printing process from OS
           833 MiB allocation reported by mallinfo(arena+hblkhd)
         58728 MiB available memory on the node where the printing process lives
     GPU memory used/free/total (MiB): 980 / 15300 / 16280
------------------
     ethr =  1.66E-09,  avg # of iterations =  3.8

     negative rho (up, down):  1.826E-04 1.541E-03

     total cpu time spent up to now is      208.7 secs

     total energy              =    -626.13782017 Ry
     estimated scf accuracy    <       0.00000088 Ry

     total magnetization       =     3.49 Bohr mag/cell
     absolute magnetization    =     3.66 Bohr mag/cell
[tb_dev] Currently allocated     1.53E+00 Mbytes, locked:    0 /  11
[tb_pin] Currently allocated     0.00E+00 Mbytes, locked:    0 /   0

     iteration # 44     ecut=    40.00 Ry     beta= 0.20
     Davidson diagonalization with overlap

---- Real-time Memory Report at c_bands before calling an iterative solver
          1029 MiB given to the printing process from OS
           833 MiB allocation reported by mallinfo(arena+hblkhd)
         58729 MiB available memory on the node where the printing process lives
     GPU memory used/free/total (MiB): 980 / 15300 / 16280
------------------
     ethr =  1.66E-09,  avg # of iterations =  4.1

     negative rho (up, down):  1.805E-04 1.542E-03

     total cpu time spent up to now is      212.4 secs

     total energy              =    -626.13781725 Ry
     estimated scf accuracy    <       0.00000110 Ry

     total magnetization       =     3.50 Bohr mag/cell
     absolute magnetization    =     3.67 Bohr mag/cell
[tb_dev] Currently allocated     1.53E+00 Mbytes, locked:    0 /  11
[tb_pin] Currently allocated     0.00E+00 Mbytes, locked:    0 /   0

     iteration # 45     ecut=    40.00 Ry     beta= 0.20
     Davidson diagonalization with overlap

---- Real-time Memory Report at c_bands before calling an iterative solver
          1030 MiB given to the printing process from OS
           833 MiB allocation reported by mallinfo(arena+hblkhd)
         58729 MiB available memory on the node where the printing process lives
     GPU memory used/free/total (MiB): 980 / 15300 / 16280
------------------
     ethr =  1.66E-09,  avg # of iterations =  5.2

     negative rho (up, down):  2.234E-04 1.572E-03

     total cpu time spent up to now is      216.9 secs

     total energy              =    -626.13667405 Ry
     estimated scf accuracy    <       0.00000091 Ry

     total magnetization       =     3.51 Bohr mag/cell
     absolute magnetization    =     3.69 Bohr mag/cell
[tb_dev] Currently allocated     1.53E+00 Mbytes, locked:    0 /  11
[tb_pin] Currently allocated     0.00E+00 Mbytes, locked:    0 /   0

     iteration # 46     ecut=    40.00 Ry     beta= 0.20
     Davidson diagonalization with overlap

---- Real-time Memory Report at c_bands before calling an iterative solver
          1030 MiB given to the printing process from OS
           833 MiB allocation reported by mallinfo(arena+hblkhd)
         58729 MiB available memory on the node where the printing process lives
     GPU memory used/free/total (MiB): 980 / 15300 / 16280
------------------
     ethr =  1.66E-09,  avg # of iterations = 11.2

     negative rho (up, down):  1.679E-04 1.551E-03

     total cpu time spent up to now is      225.1 secs

     total energy              =    -626.13557444 Ry
     estimated scf accuracy    <       0.00002788 Ry

     total magnetization       =     3.19 Bohr mag/cell
     absolute magnetization    =     3.36 Bohr mag/cell
[tb_dev] Currently allocated     1.53E+00 Mbytes, locked:    0 /  11
[tb_pin] Currently allocated     0.00E+00 Mbytes, locked:    0 /   0

     iteration # 47     ecut=    40.00 Ry     beta= 0.20
     Davidson diagonalization with overlap

---- Real-time Memory Report at c_bands before calling an iterative solver
          1030 MiB given to the printing process from OS
           833 MiB allocation reported by mallinfo(arena+hblkhd)
         58729 MiB available memory on the node where the printing process lives
     GPU memory used/free/total (MiB): 980 / 15300 / 16280
------------------
     ethr =  1.66E-09,  avg # of iterations = 11.7

     negative rho (up, down):  1.830E-04 1.541E-03

     total cpu time spent up to now is      234.0 secs

     total energy              =    -626.13768084 Ry
     estimated scf accuracy    <       0.00000238 Ry

     total magnetization       =     3.59 Bohr mag/cell
     absolute magnetization    =     3.77 Bohr mag/cell
[tb_dev] Currently allocated     1.53E+00 Mbytes, locked:    0 /  11
[tb_pin] Currently allocated     0.00E+00 Mbytes, locked:    0 /   0

     iteration # 48     ecut=    40.00 Ry     beta= 0.20
     Davidson diagonalization with overlap

---- Real-time Memory Report at c_bands before calling an iterative solver
          1030 MiB given to the printing process from OS
           833 MiB allocation reported by mallinfo(arena+hblkhd)
         58729 MiB available memory on the node where the printing process lives
     GPU memory used/free/total (MiB): 980 / 15300 / 16280
------------------
     ethr =  1.66E-09,  avg # of iterations =  8.2

     negative rho (up, down):  1.882E-04 1.537E-03

     total cpu time spent up to now is      240.3 secs

     total energy              =    -626.13781173 Ry
     estimated scf accuracy    <       0.00000102 Ry

     total magnetization       =     3.50 Bohr mag/cell
     absolute magnetization    =     3.67 Bohr mag/cell
[tb_dev] Currently allocated     1.53E+00 Mbytes, locked:    0 /  11
[tb_pin] Currently allocated     0.00E+00 Mbytes, locked:    0 /   0

     iteration # 49     ecut=    40.00 Ry     beta= 0.20
     Davidson diagonalization with overlap

---- Real-time Memory Report at c_bands before calling an iterative solver
          1030 MiB given to the printing process from OS
           833 MiB allocation reported by mallinfo(arena+hblkhd)
         58729 MiB available memory on the node where the printing process lives
     GPU memory used/free/total (MiB): 980 / 15300 / 16280
------------------
     ethr =  1.66E-09,  avg # of iterations =  6.3

     negative rho (up, down):  1.874E-04 1.537E-03

     total cpu time spent up to now is      245.6 secs

     total energy              =    -626.13782814 Ry
     estimated scf accuracy    <       0.00000102 Ry

     total magnetization       =     3.46 Bohr mag/cell
     absolute magnetization    =     3.63 Bohr mag/cell
[tb_dev] Currently allocated     1.53E+00 Mbytes, locked:    0 /  11
[tb_pin] Currently allocated     0.00E+00 Mbytes, locked:    0 /   0

     iteration # 50     ecut=    40.00 Ry     beta= 0.20
     Davidson diagonalization with overlap

---- Real-time Memory Report at c_bands before calling an iterative solver
          1030 MiB given to the printing process from OS
           833 MiB allocation reported by mallinfo(arena+hblkhd)
         58729 MiB available memory on the node where the printing process lives
     GPU memory used/free/total (MiB): 980 / 15300 / 16280
------------------
     ethr =  1.66E-09,  avg # of iterations =  1.8

     negative rho (up, down):  1.865E-04 1.538E-03

     total cpu time spent up to now is      248.1 secs

     total energy              =    -626.13782668 Ry
     estimated scf accuracy    <       0.00000099 Ry

     total magnetization       =     3.47 Bohr mag/cell
     absolute magnetization    =     3.64 Bohr mag/cell
[tb_dev] Currently allocated     1.53E+00 Mbytes, locked:    0 /  11
[tb_pin] Currently allocated     0.00E+00 Mbytes, locked:    0 /   0

     iteration # 51     ecut=    40.00 Ry     beta= 0.20
     Davidson diagonalization with overlap

---- Real-time Memory Report at c_bands before calling an iterative solver
          1030 MiB given to the printing process from OS
           833 MiB allocation reported by mallinfo(arena+hblkhd)
         58729 MiB available memory on the node where the printing process lives
     GPU memory used/free/total (MiB): 980 / 15300 / 16280
------------------
     ethr =  1.66E-09,  avg # of iterations =  3.6

     negative rho (up, down):  1.853E-04 1.539E-03

     total cpu time spent up to now is      251.5 secs

[...]
          1030 MiB given to the printing process from OS
           833 MiB allocation reported by mallinfo(arena+hblkhd)
         58720 MiB available memory on the node where the printing process lives
     GPU memory used/free/total (MiB): 980 / 15300 / 16280
------------------
     ethr =  1.66E-09,  avg # of iterations =  5.3

     negative rho (up, down):  2.025E-04 1.527E-03

     total cpu time spent up to now is      312.0 secs

     total energy              =    -626.13709004 Ry
     estimated scf accuracy    <       0.00000214 Ry

     total magnetization       =     3.59 Bohr mag/cell
     absolute magnetization    =     3.77 Bohr mag/cell
[tb_dev] Currently allocated     1.53E+00 Mbytes, locked:    0 /  11
[tb_pin] Currently allocated     0.00E+00 Mbytes, locked:    0 /   0

     iteration # 66     ecut=    40.00 Ry     beta= 0.20
     Davidson diagonalization with overlap

---- Real-time Memory Report at c_bands before calling an iterative solver
          1030 MiB given to the printing process from OS
           833 MiB allocation reported by mallinfo(arena+hblkhd)
         58721 MiB available memory on the node where the printing process lives
     GPU memory used/free/total (MiB): 980 / 15300 / 16280
------------------
     ethr =  1.66E-09,  avg # of iterations = 10.5

     negative rho (up, down):  1.730E-04 1.547E-03

     total cpu time spent up to now is      319.9 secs

     total energy              =    -626.13721802 Ry
     estimated scf accuracy    <       0.00000313 Ry

     total magnetization       =     3.36 Bohr mag/cell
     absolute magnetization    =     3.53 Bohr mag/cell
[tb_dev] Currently allocated     1.53E+00 Mbytes, locked:    0 /  11
[tb_pin] Currently allocated     0.00E+00 Mbytes, locked:    0 /   0

     iteration # 67     ecut=    40.00 Ry     beta= 0.20
     Davidson diagonalization with overlap

---- Real-time Memory Report at c_bands before calling an iterative solver
          1030 MiB given to the printing process from OS
           833 MiB allocation reported by mallinfo(arena+hblkhd)
         58722 MiB available memory on the node where the printing process lives
     GPU memory used/free/total (MiB): 980 / 15300 / 16280
------------------
     ethr =  1.66E-09,  avg # of iterations =  9.9

     negative rho (up, down):  1.355E-04 1.573E-03

     total cpu time spent up to now is      327.7 secs

     total energy              =    -626.13683827 Ry
     estimated scf accuracy    <       0.00000140 Ry

     total magnetization       =     3.56 Bohr mag/cell
     absolute magnetization    =     3.73 Bohr mag/cell
[tb_dev] Currently allocated     1.53E+00 Mbytes, locked:    0 /  11
[tb_pin] Currently allocated     0.00E+00 Mbytes, locked:    0 /   0

     iteration # 68     ecut=    40.00 Ry     beta= 0.20
     Davidson diagonalization with overlap

---- Real-time Memory Report at c_bands before calling an iterative solver
          1030 MiB given to the printing process from OS
           833 MiB allocation reported by mallinfo(arena+hblkhd)
         58723 MiB available memory on the node where the printing process lives
     GPU memory used/free/total (MiB): 980 / 15300 / 16280
------------------
     ethr =  1.66E-09,  avg # of iterations = 10.8

     negative rho (up, down):  1.944E-04 1.533E-03

     total cpu time spent up to now is      335.8 secs

     total energy              =    -626.13574130 Ry
     estimated scf accuracy    <       0.00001314 Ry

     total magnetization       =     3.79 Bohr mag/cell
     absolute magnetization    =     3.96 Bohr mag/cell
[tb_dev] Currently allocated     1.53E+00 Mbytes, locked:    0 /  11
[tb_pin] Currently allocated     0.00E+00 Mbytes, locked:    0 /   0

     iteration # 69     ecut=    40.00 Ry     beta= 0.20
     Davidson diagonalization with overlap

---- Real-time Memory Report at c_bands before calling an iterative solver
          1030 MiB given to the printing process from OS
           833 MiB allocation reported by mallinfo(arena+hblkhd)
         58723 MiB available memory on the node where the printing process lives
     GPU memory used/free/total (MiB): 980 / 15300 / 16280
------------------
     ethr =  1.66E-09,  avg # of iterations = 11.7

     negative rho (up, down):  1.897E-04 1.536E-03

     total cpu time spent up to now is      344.6 secs

     total energy              =    -626.13781676 Ry
     estimated scf accuracy    <       0.00000166 Ry

     total magnetization       =     3.42 Bohr mag/cell
     absolute magnetization    =     3.59 Bohr mag/cell
[tb_dev] Currently allocated     1.53E+00 Mbytes, locked:    0 /  11
[tb_pin] Currently allocated     0.00E+00 Mbytes, locked:    0 /   0

     iteration # 70     ecut=    40.00 Ry     beta= 0.20
     Davidson diagonalization with overlap

---- Real-time Memory Report at c_bands before calling an iterative solver
          1030 MiB given to the printing process from OS
           833 MiB allocation reported by mallinfo(arena+hblkhd)
         58724 MiB available memory on the node where the printing process lives
     GPU memory used/free/total (MiB): 980 / 15300 / 16280
------------------
     ethr =  1.66E-09,  avg # of iterations =  6.0

     negative rho (up, down):  1.902E-04 1.536E-03

     total cpu time spent up to now is      349.6 secs

     total energy              =    -626.13783176 Ry
     estimated scf accuracy    <       0.00000129 Ry

     total magnetization       =     3.45 Bohr mag/cell
     absolute magnetization    =     3.62 Bohr mag/cell
[tb_dev] Currently allocated     1.53E+00 Mbytes, locked:    0 /  11
[tb_pin] Currently allocated     0.00E+00 Mbytes, locked:    0 /   0

     iteration # 71     ecut=    40.00 Ry     beta= 0.20
     Davidson diagonalization with overlap

---- Real-time Memory Report at c_bands before calling an iterative solver
          1030 MiB given to the printing process from OS
           833 MiB allocation reported by mallinfo(arena+hblkhd)
         58725 MiB available memory on the node where the printing process lives
     GPU memory used/free/total (MiB): 980 / 15300 / 16280
------------------
     ethr =  1.66E-09,  avg # of iterations =  1.2

     negative rho (up, down):  1.792E-04 1.543E-03

     total cpu time spent up to now is      351.8 secs

     total energy              =    -626.13773860 Ry
     estimated scf accuracy    <       0.00000138 Ry

     total magnetization       =     3.45 Bohr mag/cell
     absolute magnetization    =     3.62 Bohr mag/cell
[tb_dev] Currently allocated     1.53E+00 Mbytes, locked:    0 /  11
[tb_pin] Currently allocated     0.00E+00 Mbytes, locked:    0 /   0

     iteration # 72     ecut=    40.00 Ry     beta= 0.20
     Davidson diagonalization with overlap

---- Real-time Memory Report at c_bands before calling an iterative solver
          1030 MiB given to the printing process from OS
           833 MiB allocation reported by mallinfo(arena+hblkhd)
         58724 MiB available memory on the node where the printing process lives
     GPU memory used/free/total (MiB): 980 / 15300 / 16280
------------------
     ethr =  1.66E-09,  avg # of iterations =  7.8

     negative rho (up, down):  1.872E-04 1.538E-03

     total cpu time spent up to now is      358.0 secs

     total energy              =    -626.13778637 Ry
     estimated scf accuracy    <       0.00000148 Ry

     total magnetization       =     3.52 Bohr mag/cell
     absolute magnetization    =     3.69 Bohr mag/cell
[tb_dev] Currently allocated     1.53E+00 Mbytes, locked:    0 /  11
[tb_pin] Currently allocated     0.00E+00 Mbytes, locked:    0 /   0

     iteration # 73     ecut=    40.00 Ry     beta= 0.20
     Davidson diagonalization with overlap

---- Real-time Memory Report at c_bands before calling an iterative solver
          1030 MiB given to the printing process from OS
           833 MiB allocation reported by mallinfo(arena+hblkhd)
         58725 MiB available memory on the node where the printing process lives
     GPU memory used/free/total (MiB): 980 / 15300 / 16280
------------------
     ethr =  1.66E-09,  avg # of iterations =  7.1

     negative rho (up, down):  1.792E-04 1.543E-03

     total cpu time spent up to now is      363.7 secs

     total energy              =    -626.13777687 Ry
     estimated scf accuracy    <       0.00000105 Ry

     total magnetization       =     3.47 Bohr mag/cell
     absolute magnetization    =     3.64 Bohr mag/cell
[tb_dev] Currently allocated     1.53E+00 Mbytes, locked:    0 /  11
[tb_pin] Currently allocated     0.00E+00 Mbytes, locked:    0 /   0

     iteration # 74     ecut=    40.00 Ry     beta= 0.20
     Davidson diagonalization with overlap

---- Real-time Memory Report at c_bands before calling an iterative solver
          1030 MiB given to the printing process from OS
           833 MiB allocation reported by mallinfo(arena+hblkhd)
         58725 MiB available memory on the node where the printing process lives
     GPU memory used/free/total (MiB): 980 / 15300 / 16280
------------------
     ethr =  1.66E-09,  avg # of iterations =  7.1

     negative rho (up, down):  1.759E-04 1.545E-03

     total cpu time spent up to now is      369.4 secs

     total energy              =    -626.13780716 Ry
     estimated scf accuracy    <       0.00000116 Ry

     total magnetization       =     3.52 Bohr mag/cell
     absolute magnetization    =     3.69 Bohr mag/cell
[tb_dev] Currently allocated     1.53E+00 Mbytes, locked:    0 /  11
[tb_pin] Currently allocated     0.00E+00 Mbytes, locked:    0 /   0

     iteration # 75     ecut=    40.00 Ry     beta= 0.20
     Davidson diagonalization with overlap

---- Real-time Memory Report at c_bands before calling an iterative solver
          1030 MiB given to the printing process from OS
           833 MiB allocation reported by mallinfo(arena+hblkhd)
         58726 MiB available memory on the node where the printing process lives
     GPU memory used/free/total (MiB): 980 / 15300 / 16280
------------------
     ethr =  1.66E-09,  avg # of iterations =  5.5

     negative rho (up, down):  1.987E-04 1.530E-03

     total cpu time spent up to now is      374.2 secs

     total energy              =    -626.13750575 Ry
     estimated scf accuracy    <       0.00000134 Ry

     total magnetization       =     3.54 Bohr mag/cell
     absolute magnetization    =     3.72 Bohr mag/cell
[tb_dev] Currently allocated     1.53E+00 Mbytes, locked:    0 /  11
[tb_pin] Currently allocated     0.00E+00 Mbytes, locked:    0 /   0

     iteration # 76     ecut=    40.00 Ry     beta= 0.20
     Davidson diagonalization with overlap

---- Real-time Memory Report at c_bands before calling an iterative solver
          1030 MiB given to the printing process from OS
           833 MiB allocation reported by mallinfo(arena+hblkhd)
         58726 MiB available memory on the node where the printing process lives
     GPU memory used/free/total (MiB): 980 / 15300 / 16280
------------------
     ethr =  1.66E-09,  avg # of iterations =  9.3

     negative rho (up, down):  1.768E-04 1.545E-03

     total cpu time spent up to now is      381.8 secs

     total energy              =    -626.13749253 Ry
     estimated scf accuracy    <       0.00000258 Ry

     total magnetization       =     3.39 Bohr mag/cell
     absolute magnetization    =     3.56 Bohr mag/cell
[tb_dev] Currently allocated     1.53E+00 Mbytes, locked:    0 /  11
[tb_pin] Currently allocated     0.00E+00 Mbytes, locked:    0 /   0

     iteration # 77     ecut=    40.00 Ry     beta= 0.20
     Davidson diagonalization with overlap

---- Real-time Memory Report at c_bands before calling an iterative solver
          1030 MiB given to the printing process from OS
           833 MiB allocation reported by mallinfo(arena+hblkhd)
         58727 MiB available memory on the node where the printing process lives
     GPU memory used/free/total (MiB): 980 / 15300 / 16280
------------------
     ethr =  1.66E-09,  avg # of iterations =  9.1

     negative rho (up, down):  1.794E-04 1.543E-03

     total cpu time spent up to now is      388.9 secs

     total energy              =    -626.13781465 Ry
     estimated scf accuracy    <       0.00000129 Ry

     total magnetization       =     3.54 Bohr mag/cell
     absolute magnetization    =     3.71 Bohr mag/cell
[tb_dev] Currently allocated     1.53E+00 Mbytes, locked:    0 /  11
[tb_pin] Currently allocated     0.00E+00 Mbytes, locked:    0 /   0

     iteration # 78     ecut=    40.00 Ry     beta= 0.20
     Davidson diagonalization with overlap

---- Real-time Memory Report at c_bands before calling an iterative solver
          1030 MiB given to the printing process from OS
           833 MiB allocation reported by mallinfo(arena+hblkhd)
         58727 MiB available memory on the node where the printing process lives
     GPU memory used/free/total (MiB): 980 / 15300 / 16280
------------------
     ethr =  1.66E-09,  avg # of iterations =  5.0

     negative rho (up, down):  2.184E-04 1.562E-03

     total cpu time spent up to now is      393.3 secs

     total energy              =    -626.13687374 Ry
     estimated scf accuracy    <       0.00000110 Ry

     total magnetization       =     3.52 Bohr mag/cell
     absolute magnetization    =     3.69 Bohr mag/cell
[tb_dev] Currently allocated     1.53E+00 Mbytes, locked:    0 /  11
[tb_pin] Currently allocated     0.00E+00 Mbytes, locked:    0 /   0

     iteration # 79     ecut=    40.00 Ry     beta= 0.20
     Davidson diagonalization with overlap

---- Real-time Memory Report at c_bands before calling an iterative solver
          1030 MiB given to the printing process from OS
           833 MiB allocation reported by mallinfo(arena+hblkhd)
         58727 MiB available memory on the node where the printing process lives
     GPU memory used/free/total (MiB): 980 / 15300 / 16280
------------------
     ethr =  1.66E-09,  avg # of iterations = 11.0

     negative rho (up, down):  1.705E-04 1.549E-03

     total cpu time spent up to now is      402.2 secs

     total energy              =    -626.13616741 Ry
     estimated scf accuracy    <       0.00001894 Ry

     total magnetization       =     3.23 Bohr mag/cell
     absolute magnetization    =     3.40 Bohr mag/cell
[tb_dev] Currently allocated     1.53E+00 Mbytes, locked:    0 /  11
[tb_pin] Currently allocated     0.00E+00 Mbytes, locked:    0 /   0

     iteration # 80     ecut=    40.00 Ry     beta= 0.20
     Davidson diagonalization with overlap

---- Real-time Memory Report at c_bands before calling an iterative solver
          1030 MiB given to the printing process from OS
           833 MiB allocation reported by mallinfo(arena+hblkhd)
         58728 MiB available memory on the node where the printing process lives
     GPU memory used/free/total (MiB): 980 / 15300 / 16280
------------------
     ethr =  1.66E-09,  avg # of iterations = 11.5

     negative rho (up, down):  1.694E-04 1.550E-03

     total cpu time spent up to now is      410.7 secs

     total energy              =    -626.13780380 Ry
     estimated scf accuracy    <       0.00000196 Ry

     total magnetization       =     3.58 Bohr mag/cell
     absolute magnetization    =     3.75 Bohr mag/cell

     End of self-consistent calculation

     convergence NOT achieved after  80 iterations: stopping

     Writing config to output data dir ./out/aiida.save/
 
     init_run     :      9.88s CPU      2.12s WALL (       1 calls)
     electrons    :    520.20s CPU    407.49s WALL (       1 calls)

     Called by init_run:
     wfcinit      :      0.24s CPU      0.24s WALL (       1 calls)
                                        0.24s GPU  (       1 calls)
     potinit      :      0.23s CPU      0.06s WALL (       1 calls)
     hinit0       :      7.18s CPU      1.29s WALL (       1 calls)

     Called by electrons:
     c_bands      :    449.01s CPU    370.34s WALL (      81 calls)
     sum_band     :     26.74s CPU     32.98s WALL (      81 calls)
     v_of_rho     :      7.64s CPU      0.70s WALL (      81 calls)
     v_h          :      1.20s CPU      0.11s WALL (      81 calls)
     v_xc         :      6.44s CPU      0.59s WALL (      81 calls)
     newd         :     25.26s CPU      2.60s WALL (      81 calls)
                                        2.60s GPU  (      81 calls)
     mix_rho      :      8.20s CPU      0.80s WALL (      81 calls)

     Called by c_bands:
     init_us_2    :     28.13s CPU     26.91s WALL (   23328 calls)
     init_us_2:gp :     27.68s CPU     26.51s WALL (   23328 calls)
     cegterg      :    412.29s CPU    337.08s WALL (   11664 calls)

     Called by sum_band:
     sum_band:wei :      0.33s CPU      0.34s WALL (      81 calls)
                                        0.34s GPU  (      81 calls)
     sum_band:loo :     23.21s CPU     29.18s WALL (      81 calls)
                                       29.18s GPU  (      81 calls)
     sum_band:buf :      2.80s CPU      3.48s WALL (   11664 calls)
                                        3.41s GPU  (   11664 calls)
     sum_band:ini :     10.04s CPU     13.14s WALL (   11664 calls)
                                       13.08s GPU  (   11664 calls)
     sum_band:cal :      0.34s CPU      0.80s WALL (   11664 calls)
                                        0.73s GPU  (   11664 calls)
     sum_band:bec :      2.07s CPU      2.63s WALL (   11664 calls)
                                        2.55s GPU  (   11664 calls)
     addusdens    :      2.73s CPU      2.97s WALL (      81 calls)
                                        2.97s GPU  (      81 calls)
     addusd:skk   :      0.01s CPU      0.02s WALL (     324 calls)
                                        0.01s GPU  (     324 calls)

     Called by *egterg:
     cdiaghg      :    234.34s CPU    194.98s WALL (   80089 calls)
                                      194.45s GPU  (   80089 calls)
     cegterg:over :      9.93s CPU      8.06s WALL (   68713 calls)
     cegterg:upda :     21.39s CPU     17.76s WALL (   68713 calls)
     cegterg:last :      4.05s CPU      3.52s WALL (   34628 calls)
     h_psi        :    104.38s CPU     83.90s WALL (   80377 calls)
                                       83.47s GPU  (   80377 calls)
     s_psi        :      8.43s CPU      9.64s WALL (   80377 calls)
                                        9.10s GPU  (   80377 calls)
     g_psi        :      0.64s CPU      1.37s WALL (   68713 calls)
                                        0.93s GPU  (   68713 calls)

     Called by h_psi:
     h_psi:calbec :      3.38s CPU      6.40s WALL (   80377 calls)
                                        5.91s GPU  (   80377 calls)
     vloc_psi     :     76.59s CPU     61.94s WALL (   80377 calls)
                                       61.47s GPU  (   80377 calls)
     add_vuspsi   :     11.01s CPU     10.70s WALL (   80377 calls)
                                       10.23s GPU  (   80377 calls)

     General routines
     calbec       :      2.81s CPU      2.33s WALL (   92041 calls)
     fft          :      3.38s CPU      0.36s WALL (    2025 calls)
                                        0.23s GPU  (    1863 calls)
     ffts         :      0.32s CPU      0.04s WALL (     324 calls)
                                        0.01s GPU  (     162 calls)
     fftw         :      6.23s CPU     34.10s WALL (  244836 calls)
                                       32.74s GPU  (  244836 calls)
     interpolate  :      2.42s CPU      0.22s WALL (     162 calls)
     davcio       :      0.97s CPU      0.31s WALL (     306 calls)
 
     Parallel routines
 
     PWSCF        :   8m54.13s CPU   6m50.98s WALL

 
   This run was terminated on:  18:15:31  23Oct2023            

=------------------------------------------------------------------------------=
   JOB DONE.
=------------------------------------------------------------------------------=
