
     Program PWSCF v.7.2 starts on 22Oct2023 at 23:29:22 

     This program is part of the open-source Quantum ESPRESSO suite
     for quantum simulation of materials; please cite
         "P. Giannozzi et al., J. Phys.:Condens. Matter 21 395502 (2009);
         "P. Giannozzi et al., J. Phys.:Condens. Matter 29 465901 (2017);
         "P. Giannozzi et al., J. Chem. Phys. 152 154105 (2020);
          URL http://www.quantum-espresso.org", 
     in publications or presentations arising from this work. More details at
     http://www.quantum-espresso.org/quote

     Parallel version (MPI & OpenMP), running on      12 processor cores
     Number of MPI processes:                 1
     Threads/MPI process:                    12

     MPI processes distributed on     1 nodes
     60508 MiB available memory on the printing compute node when the environment starts
 
     Reading input from aiida.in

     Current dimensions of program PWSCF are:
     Max number of different atomic species (ntypx) = 10
     Max number of k-points (npk) =  40000
     Max angular momentum in pseudopotentials (lmaxx) =  4
     file Fe.pbesol-spn-kjpaw_psl.0.2.1.UPF: wavefunction(s)  3D renormalized
     Message from routine setup:
     using ibrav=0 with symmetry is DISCOURAGED, use correct ibrav instead
 
     Subspace diagonalization in iterative solution of the eigenvalue problem:
     a serial algorithm will be used

 
     G-vector sticks info
     --------------------
     sticks:   dense  smooth     PW     G-vecs:    dense   smooth      PW
     Sum        4507    1507    433               310909    59765    9079
 
     Using Slab Decomposition
 


     bravais-lattice index     =            0
     lattice parameter (alat)  =       7.7706  a.u.
     unit-cell volume          =     518.0008 (a.u.)^3
     number of atoms/cell      =            6
     number of atomic types    =            3
     number of electrons       =        90.00
     number of Kohn-Sham states=           54
     kinetic-energy cutoff     =      90.0000  Ry
     charge density cutoff     =    1080.0000  Ry
     scf convergence threshold =      1.2E-09
     mixing beta               =       0.4000
     number of iterations used =            8  plain     mixing
     Exchange-correlation= SLA  PW   PSX  PSC
                           (   1   4  10   8   0   0   0)

     GPU acceleration is ACTIVE.


     GPU used by master process:

        Device Number: 0
        Device name: Tesla P100-PCIE-16GB
        Compute capability : 60
        Ratio of single to double precision performance  : 2
        Memory Clock Rate (KHz): 715000
        Memory Bus Width (bits): 4096
        Peak Memory Bandwidth (GB/s): 732.16

     celldm(1)=   7.770554  celldm(2)=   0.000000  celldm(3)=   0.000000
     celldm(4)=   0.000000  celldm(5)=   0.000000  celldm(6)=   0.000000

     crystal axes: (cart. coord. in units of alat)
               a(1) = (   1.000000   0.000000   0.000000 )  
               a(2) = (  -0.500000   0.866025   0.000000 )  
               a(3) = (   0.000000   0.000000   1.274805 )  

     reciprocal axes: (cart. coord. in units 2 pi/alat)
               b(1) = (  1.000000  0.577350 -0.000000 )  
               b(2) = (  0.000000  1.154701  0.000000 )  
               b(3) = (  0.000000 -0.000000  0.784433 )  


     PseudoPot. # 1 for Fe read from file:
     ./pseudo/Fe.pbesol-spn-kjpaw_psl.0.2.1.UPF
     MD5 check sum: 4d7ec5aa2156491519a4322664fbbf52
     Pseudo is Projector augmented-wave + core cor, Zval = 16.0
     Generated using "atomic" code by A. Dal Corso  v.6.0 svn rev. 13079
     Shape of augmentation charge: PSQ
     Using radial grid of 1191 points,  6 beta functions with: 
                l(1) =   0
                l(2) =   0
                l(3) =   1
                l(4) =   1
                l(5) =   2
                l(6) =   2
     Q(r) pseudized with 0 coefficients 


     PseudoPot. # 2 for Ge read from file:
     ./pseudo/ge_pbesol_v1.4.uspp.F.UPF
     MD5 check sum: 7bed0412183f5e553a4d27ec7023354d
     Pseudo is Ultrasoft + core correction, Zval = 14.0
     Generated by new atomic code, or converted to UPF format
     Using radial grid of  873 points,  6 beta functions with: 
                l(1) =   0
                l(2) =   0
                l(3) =   1
                l(4) =   1
                l(5) =   2
                l(6) =   2
     Q(r) pseudized with  8 coefficients,  rinner =    1.400   1.400   1.400
                                                       1.400   1.400

     PseudoPot. # 3 for Mn read from file:
     ./pseudo/mn_pbesol_v1.5.uspp.F.UPF
     MD5 check sum: 0716d5f563e6e95a34f9080f4c78c109
     Pseudo is Ultrasoft + core correction, Zval = 15.0
     Generated by new atomic code, or converted to UPF format
     Using radial grid of  859 points,  6 beta functions with: 
                l(1) =   0
                l(2) =   0
                l(3) =   1
                l(4) =   1
                l(5) =   2
                l(6) =   2
     Q(r) pseudized with  8 coefficients,  rinner =    0.950   0.950   0.950
                                                       0.950   0.950

     atomic species   valence    mass     pseudopotential
        Fe            16.00    55.84500     Fe( 1.00)
        Ge            14.00    72.64000     Ge( 1.00)
        Mn            15.00    54.93805     Mn( 1.00)

     Starting magnetic structure 
     atomic species   magnetization
        Fe           0.313
        Ge           0.100
        Mn           0.333

     24 Sym. Ops., with inversion, found (12 have fractional translation)


                                    s                        frac. trans.

      isym =  1     identity                                     

 cryst.   s( 1) = (     1          0          0      )
                  (     0          1          0      )
                  (     0          0          1      )

 cart.    s( 1) = (  1.0000000  0.0000000  0.0000000 )
                  (  0.0000000  1.0000000  0.0000000 )
                  (  0.0000000  0.0000000  1.0000000 )


      isym =  2     180 deg rotation - cart. axis [0,0,1]        

 cryst.   s( 2) = (    -1          0          0      )    f =(  0.0000000 )
                  (     0         -1          0      )       (  0.0000000 )
                  (     0          0          1      )       (  0.5000000 )

 cart.    s( 2) = ( -1.0000000  0.0000000  0.0000000 )    f =(  0.0000000 )
                  (  0.0000000 -1.0000000  0.0000000 )       (  0.0000000 )
                  (  0.0000000  0.0000000  1.0000000 )       (  0.6374027 )


      isym =  3     180 deg rotation - cart. axis [0,1,0]        

 cryst.   s( 3) = (    -1          0          0      )    f =(  0.0000000 )
                  (     1          1          0      )       (  0.0000000 )
                  (     0          0         -1      )       (  0.5000000 )

 cart.    s( 3) = ( -1.0000000  0.0000000  0.0000000 )    f =(  0.0000000 )
                  (  0.0000000  1.0000000  0.0000000 )       (  0.0000000 )
                  (  0.0000000  0.0000000 -1.0000000 )       (  0.6374027 )


      isym =  4     180 deg rotation - cart. axis [1,0,0]        

 cryst.   s( 4) = (     1          0          0      )
                  (    -1         -1          0      )
                  (     0          0         -1      )

 cart.    s( 4) = (  1.0000000  0.0000000  0.0000000 )
                  (  0.0000000 -1.0000000  0.0000000 )
                  (  0.0000000  0.0000000 -1.0000000 )


      isym =  5      60 deg rotation - cryst. axis [0,0,1]       

 cryst.   s( 5) = (     1          1          0      )    f =(  0.0000000 )
                  (    -1          0          0      )       (  0.0000000 )
                  (     0          0          1      )       (  0.5000000 )

 cart.    s( 5) = (  0.5000000 -0.8660254  0.0000000 )    f =(  0.0000000 )
                  (  0.8660254  0.5000000  0.0000000 )       (  0.0000000 )
                  (  0.0000000  0.0000000  1.0000000 )       (  0.6374027 )


      isym =  6      60 deg rotation - cryst. axis [0,0,-1]      

 cryst.   s( 6) = (     0         -1          0      )    f =(  0.0000000 )
                  (     1          1          0      )       (  0.0000000 )
                  (     0          0          1      )       (  0.5000000 )

 cart.    s( 6) = (  0.5000000  0.8660254  0.0000000 )    f =(  0.0000000 )
                  ( -0.8660254  0.5000000  0.0000000 )       (  0.0000000 )
                  (  0.0000000  0.0000000  1.0000000 )       (  0.6374027 )


      isym =  7     120 deg rotation - cryst. axis [0,0,1]       

 cryst.   s( 7) = (     0          1          0      )
                  (    -1         -1          0      )
                  (     0          0          1      )

 cart.    s( 7) = ( -0.5000000 -0.8660254  0.0000000 )
                  (  0.8660254 -0.5000000  0.0000000 )
                  (  0.0000000  0.0000000  1.0000000 )


      isym =  8     120 deg rotation - cryst. axis [0,0,-1]      

 cryst.   s( 8) = (    -1         -1          0      )
                  (     1          0          0      )
                  (     0          0          1      )

 cart.    s( 8) = ( -0.5000000  0.8660254  0.0000000 )
                  ( -0.8660254 -0.5000000  0.0000000 )
                  (  0.0000000  0.0000000  1.0000000 )


      isym =  9     180 deg rotation - cryst. axis [1,-1,0]      

 cryst.   s( 9) = (     0         -1          0      )    f =(  0.0000000 )
                  (    -1          0          0      )       (  0.0000000 )
                  (     0          0         -1      )       (  0.5000000 )

 cart.    s( 9) = (  0.5000000 -0.8660254  0.0000000 )    f =(  0.0000000 )
                  ( -0.8660254 -0.5000000  0.0000000 )       (  0.0000000 )
                  (  0.0000000  0.0000000 -1.0000000 )       (  0.6374027 )


      isym = 10     180 deg rotation - cryst. axis [2,1,0]       

 cryst.   s(10) = (     1          1          0      )    f =(  0.0000000 )
                  (     0         -1          0      )       (  0.0000000 )
                  (     0          0         -1      )       (  0.5000000 )

 cart.    s(10) = (  0.5000000  0.8660254  0.0000000 )    f =(  0.0000000 )
                  (  0.8660254 -0.5000000  0.0000000 )       (  0.0000000 )
                  (  0.0000000  0.0000000 -1.0000000 )       (  0.6374027 )


      isym = 11     180 deg rotation - cryst. axis [0,1,0]       

 cryst.   s(11) = (    -1         -1          0      )
                  (     0          1          0      )
                  (     0          0         -1      )

 cart.    s(11) = ( -0.5000000 -0.8660254  0.0000000 )
                  ( -0.8660254  0.5000000  0.0000000 )
                  (  0.0000000  0.0000000 -1.0000000 )


      isym = 12     180 deg rotation - cryst. axis [1,1,0]       

 cryst.   s(12) = (     0          1          0      )
                  (     1          0          0      )
                  (     0          0         -1      )

 cart.    s(12) = ( -0.5000000  0.8660254  0.0000000 )
                  (  0.8660254  0.5000000  0.0000000 )
                  (  0.0000000  0.0000000 -1.0000000 )


      isym = 13     inversion                                    

 cryst.   s(13) = (    -1          0          0      )
                  (     0         -1          0      )
                  (     0          0         -1      )

 cart.    s(13) = ( -1.0000000  0.0000000  0.0000000 )
                  (  0.0000000 -1.0000000  0.0000000 )
                  (  0.0000000  0.0000000 -1.0000000 )


      isym = 14     inv. 180 deg rotation - cart. axis [0,0,1]   

 cryst.   s(14) = (     1          0          0      )    f =(  0.0000000 )
                  (     0          1          0      )       (  0.0000000 )
                  (     0          0         -1      )       (  0.5000000 )

 cart.    s(14) = (  1.0000000  0.0000000  0.0000000 )    f =(  0.0000000 )
                  (  0.0000000  1.0000000  0.0000000 )       (  0.0000000 )
                  (  0.0000000  0.0000000 -1.0000000 )       (  0.6374027 )


      isym = 15     inv. 180 deg rotation - cart. axis [0,1,0]   

 cryst.   s(15) = (     1          0          0      )    f =(  0.0000000 )
                  (    -1         -1          0      )       (  0.0000000 )
                  (     0          0          1      )       (  0.5000000 )

 cart.    s(15) = (  1.0000000  0.0000000  0.0000000 )    f =(  0.0000000 )
                  (  0.0000000 -1.0000000  0.0000000 )       (  0.0000000 )
                  (  0.0000000  0.0000000  1.0000000 )       (  0.6374027 )


      isym = 16     inv. 180 deg rotation - cart. axis [1,0,0]   

 cryst.   s(16) = (    -1          0          0      )
                  (     1          1          0      )
                  (     0          0          1      )

 cart.    s(16) = ( -1.0000000  0.0000000  0.0000000 )
                  (  0.0000000  1.0000000  0.0000000 )
                  (  0.0000000  0.0000000  1.0000000 )


      isym = 17     inv.  60 deg rotation - cryst. axis [0,0,1]  

 cryst.   s(17) = (    -1         -1          0      )    f =(  0.0000000 )
                  (     1          0          0      )       (  0.0000000 )
                  (     0          0         -1      )       (  0.5000000 )

 cart.    s(17) = ( -0.5000000  0.8660254  0.0000000 )    f =(  0.0000000 )
                  ( -0.8660254 -0.5000000  0.0000000 )       (  0.0000000 )
                  (  0.0000000  0.0000000 -1.0000000 )       (  0.6374027 )


      isym = 18     inv.  60 deg rotation - cryst. axis [0,0,-1] 

 cryst.   s(18) = (     0          1          0      )    f =(  0.0000000 )
                  (    -1         -1          0      )       (  0.0000000 )
                  (     0          0         -1      )       (  0.5000000 )

 cart.    s(18) = ( -0.5000000 -0.8660254  0.0000000 )    f =(  0.0000000 )
                  (  0.8660254 -0.5000000  0.0000000 )       (  0.0000000 )
                  (  0.0000000  0.0000000 -1.0000000 )       (  0.6374027 )


      isym = 19     inv. 120 deg rotation - cryst. axis [0,0,1]  

 cryst.   s(19) = (     0         -1          0      )
                  (     1          1          0      )
                  (     0          0         -1      )

 cart.    s(19) = (  0.5000000  0.8660254  0.0000000 )
                  ( -0.8660254  0.5000000  0.0000000 )
                  (  0.0000000  0.0000000 -1.0000000 )


      isym = 20     inv. 120 deg rotation - cryst. axis [0,0,-1] 

 cryst.   s(20) = (     1          1          0      )
                  (    -1          0          0      )
                  (     0          0         -1      )

 cart.    s(20) = (  0.5000000 -0.8660254  0.0000000 )
                  (  0.8660254  0.5000000  0.0000000 )
                  (  0.0000000  0.0000000 -1.0000000 )


      isym = 21     inv. 180 deg rotation - cryst. axis [1,-1,0] 

 cryst.   s(21) = (     0          1          0      )    f =(  0.0000000 )
                  (     1          0          0      )       (  0.0000000 )
                  (     0          0          1      )       (  0.5000000 )

 cart.    s(21) = ( -0.5000000  0.8660254  0.0000000 )    f =(  0.0000000 )
                  (  0.8660254  0.5000000  0.0000000 )       (  0.0000000 )
                  (  0.0000000  0.0000000  1.0000000 )       (  0.6374027 )


      isym = 22     inv. 180 deg rotation - cryst. axis [2,1,0]  

 cryst.   s(22) = (    -1         -1          0      )    f =(  0.0000000 )
                  (     0          1          0      )       (  0.0000000 )
                  (     0          0          1      )       (  0.5000000 )

 cart.    s(22) = ( -0.5000000 -0.8660254  0.0000000 )    f =(  0.0000000 )
                  ( -0.8660254  0.5000000  0.0000000 )       (  0.0000000 )
                  (  0.0000000  0.0000000  1.0000000 )       (  0.6374027 )


      isym = 23     inv. 180 deg rotation - cryst. axis [0,1,0]  

 cryst.   s(23) = (     1          1          0      )
                  (     0         -1          0      )
                  (     0          0          1      )

 cart.    s(23) = (  0.5000000  0.8660254  0.0000000 )
                  (  0.8660254 -0.5000000  0.0000000 )
                  (  0.0000000  0.0000000  1.0000000 )


      isym = 24     inv. 180 deg rotation - cryst. axis [1,1,0]  

 cryst.   s(24) = (     0         -1          0      )
                  (    -1          0          0      )
                  (     0          0          1      )

 cart.    s(24) = (  0.5000000 -0.8660254  0.0000000 )
                  ( -0.8660254 -0.5000000  0.0000000 )
                  (  0.0000000  0.0000000  1.0000000 )


   Cartesian axes

     site n.     atom                  positions (alat units)
         1           Mn  tau(   1) = (   0.0000000   0.0000000   0.6374027  )
         2           Mn  tau(   2) = (   0.0000000   0.0000000   0.0000000  )
         3           Fe  tau(   3) = (   0.0000000   0.5773503   0.9561041  )
         4           Fe  tau(   4) = (   0.5000000   0.2886751   0.3187014  )
         5           Ge  tau(   5) = (   0.0000000   0.5773503   0.3187014  )
         6           Ge  tau(   6) = (   0.5000000   0.2886751   0.9561041  )

   Crystallographic axes

     site n.     atom                  positions (cryst. coord.)
         1           Mn  tau(   1) = (  0.0000000  0.0000000  0.5000000  )
         2           Mn  tau(   2) = (  0.0000000  0.0000000  0.0000000  )
         3           Fe  tau(   3) = (  0.3333333  0.6666667  0.7500000  )
         4           Fe  tau(   4) = (  0.6666667  0.3333333  0.2500000  )
         5           Ge  tau(   5) = (  0.3333333  0.6666667  0.2500000  )
         6           Ge  tau(   6) = (  0.6666667  0.3333333  0.7500000  )

     number of k points=    95  Marzari-Vanderbilt smearing, width (Ry)=  0.0100
                       cart. coord. in units 2pi/alat
        k(    1) = (   0.0000000   0.0000000   0.0000000), wk =   0.0008681
        k(    2) = (   0.0000000   0.0000000   0.0980542), wk =   0.0017361
        k(    3) = (   0.0000000   0.0000000   0.1961084), wk =   0.0017361
        k(    4) = (   0.0000000   0.0000000   0.2941625), wk =   0.0017361
        k(    5) = (   0.0000000   0.0000000  -0.3922167), wk =   0.0008681
        k(    6) = (   0.0000000   0.0962250   0.0000000), wk =   0.0052083
        k(    7) = (   0.0000000   0.0962250   0.0980542), wk =   0.0104167
        k(    8) = (   0.0000000   0.0962250   0.1961084), wk =   0.0104167
        k(    9) = (   0.0000000   0.0962250   0.2941625), wk =   0.0104167
        k(   10) = (   0.0000000   0.0962250  -0.3922167), wk =   0.0052083
        k(   11) = (   0.0000000   0.1924501   0.0000000), wk =   0.0052083
        k(   12) = (   0.0000000   0.1924501   0.0980542), wk =   0.0104167
        k(   13) = (   0.0000000   0.1924501   0.1961084), wk =   0.0104167
        k(   14) = (   0.0000000   0.1924501   0.2941625), wk =   0.0104167
        k(   15) = (   0.0000000   0.1924501  -0.3922167), wk =   0.0052083
        k(   16) = (   0.0000000   0.2886751   0.0000000), wk =   0.0052083
        k(   17) = (   0.0000000   0.2886751   0.0980542), wk =   0.0104167
        k(   18) = (   0.0000000   0.2886751   0.1961084), wk =   0.0104167
        k(   19) = (   0.0000000   0.2886751   0.2941625), wk =   0.0104167
        k(   20) = (   0.0000000   0.2886751  -0.3922167), wk =   0.0052083
        k(   21) = (   0.0000000   0.3849002   0.0000000), wk =   0.0052083
        k(   22) = (   0.0000000   0.3849002   0.0980542), wk =   0.0104167
        k(   23) = (   0.0000000   0.3849002   0.1961084), wk =   0.0104167
        k(   24) = (   0.0000000   0.3849002   0.2941625), wk =   0.0104167
        k(   25) = (   0.0000000   0.3849002  -0.3922167), wk =   0.0052083
        k(   26) = (   0.0000000   0.4811252   0.0000000), wk =   0.0052083
        k(   27) = (   0.0000000   0.4811252   0.0980542), wk =   0.0104167
        k(   28) = (   0.0000000   0.4811252   0.1961084), wk =   0.0104167
        k(   29) = (   0.0000000   0.4811252   0.2941625), wk =   0.0104167
        k(   30) = (   0.0000000   0.4811252  -0.3922167), wk =   0.0052083
        k(   31) = (   0.0000000  -0.5773503   0.0000000), wk =   0.0026042
        k(   32) = (   0.0000000  -0.5773503   0.0980542), wk =   0.0052083
        k(   33) = (   0.0000000  -0.5773503   0.1961084), wk =   0.0052083
        k(   34) = (   0.0000000  -0.5773503   0.2941625), wk =   0.0052083
        k(   35) = (   0.0000000  -0.5773503  -0.3922167), wk =   0.0026042
        k(   36) = (   0.0833333   0.1443376   0.0000000), wk =   0.0052083
        k(   37) = (   0.0833333   0.1443376   0.0980542), wk =   0.0104167
        k(   38) = (   0.0833333   0.1443376   0.1961084), wk =   0.0104167
        k(   39) = (   0.0833333   0.1443376   0.2941625), wk =   0.0104167
        k(   40) = (   0.0833333   0.1443376  -0.3922167), wk =   0.0052083
        k(   41) = (   0.0833333   0.2405626   0.0000000), wk =   0.0104167
        k(   42) = (   0.0833333   0.2405626   0.0980542), wk =   0.0208333
        k(   43) = (   0.0833333   0.2405626   0.1961084), wk =   0.0208333
        k(   44) = (   0.0833333   0.2405626   0.2941625), wk =   0.0208333
        k(   45) = (   0.0833333   0.2405626  -0.3922167), wk =   0.0104167
        k(   46) = (   0.0833333   0.3367877   0.0000000), wk =   0.0104167
        k(   47) = (   0.0833333   0.3367877   0.0980542), wk =   0.0208333
        k(   48) = (   0.0833333   0.3367877   0.1961084), wk =   0.0208333
        k(   49) = (   0.0833333   0.3367877   0.2941625), wk =   0.0208333
        k(   50) = (   0.0833333   0.3367877  -0.3922167), wk =   0.0104167
        k(   51) = (   0.0833333   0.4330127   0.0000000), wk =   0.0104167
        k(   52) = (   0.0833333   0.4330127   0.0980542), wk =   0.0208333
        k(   53) = (   0.0833333   0.4330127   0.1961084), wk =   0.0208333
        k(   54) = (   0.0833333   0.4330127   0.2941625), wk =   0.0208333
        k(   55) = (   0.0833333   0.4330127  -0.3922167), wk =   0.0104167
        k(   56) = (   0.0833333   0.5292377   0.0000000), wk =   0.0104167
        k(   57) = (   0.0833333   0.5292377   0.0980542), wk =   0.0208333
        k(   58) = (   0.0833333   0.5292377   0.1961084), wk =   0.0208333
        k(   59) = (   0.0833333   0.5292377   0.2941625), wk =   0.0208333
        k(   60) = (   0.0833333   0.5292377  -0.3922167), wk =   0.0104167
        k(   61) = (   0.1666667   0.2886751   0.0000000), wk =   0.0052083
        k(   62) = (   0.1666667   0.2886751   0.0980542), wk =   0.0104167
        k(   63) = (   0.1666667   0.2886751   0.1961084), wk =   0.0104167
        k(   64) = (   0.1666667   0.2886751   0.2941625), wk =   0.0104167
        k(   65) = (   0.1666667   0.2886751  -0.3922167), wk =   0.0052083
        k(   66) = (   0.1666667   0.3849002   0.0000000), wk =   0.0104167
        k(   67) = (   0.1666667   0.3849002   0.0980542), wk =   0.0208333
        k(   68) = (   0.1666667   0.3849002   0.1961084), wk =   0.0208333
        k(   69) = (   0.1666667   0.3849002   0.2941625), wk =   0.0208333
        k(   70) = (   0.1666667   0.3849002  -0.3922167), wk =   0.0104167
        k(   71) = (   0.1666667   0.4811252   0.0000000), wk =   0.0104167
        k(   72) = (   0.1666667   0.4811252   0.0980542), wk =   0.0208333
        k(   73) = (   0.1666667   0.4811252   0.1961084), wk =   0.0208333
        k(   74) = (   0.1666667   0.4811252   0.2941625), wk =   0.0208333
        k(   75) = (   0.1666667   0.4811252  -0.3922167), wk =   0.0104167
        k(   76) = (   0.1666667   0.5773503   0.0000000), wk =   0.0052083
        k(   77) = (   0.1666667   0.5773503   0.0980542), wk =   0.0104167
        k(   78) = (   0.1666667   0.5773503   0.1961084), wk =   0.0104167
        k(   79) = (   0.1666667   0.5773503   0.2941625), wk =   0.0104167
        k(   80) = (   0.1666667   0.5773503  -0.3922167), wk =   0.0052083
        k(   81) = (   0.2500000   0.4330127   0.0000000), wk =   0.0052083
        k(   82) = (   0.2500000   0.4330127   0.0980542), wk =   0.0104167
        k(   83) = (   0.2500000   0.4330127   0.1961084), wk =   0.0104167
        k(   84) = (   0.2500000   0.4330127   0.2941625), wk =   0.0104167
        k(   85) = (   0.2500000   0.4330127  -0.3922167), wk =   0.0052083
        k(   86) = (   0.2500000   0.5292377   0.0000000), wk =   0.0104167
        k(   87) = (   0.2500000   0.5292377   0.0980542), wk =   0.0208333
        k(   88) = (   0.2500000   0.5292377   0.1961084), wk =   0.0208333
        k(   89) = (   0.2500000   0.5292377   0.2941625), wk =   0.0208333
        k(   90) = (   0.2500000   0.5292377  -0.3922167), wk =   0.0104167
        k(   91) = (   0.3333333   0.5773503   0.0000000), wk =   0.0017361
        k(   92) = (   0.3333333   0.5773503   0.0980542), wk =   0.0034722
        k(   93) = (   0.3333333   0.5773503   0.1961084), wk =   0.0034722
        k(   94) = (   0.3333333   0.5773503   0.2941625), wk =   0.0034722
        k(   95) = (   0.3333333   0.5773503  -0.3922167), wk =   0.0017361

                       cryst. coord.
        k(    1) = (   0.0000000   0.0000000   0.0000000), wk =   0.0008681
        k(    2) = (   0.0000000   0.0000000   0.1250000), wk =   0.0017361
        k(    3) = (   0.0000000   0.0000000   0.2500000), wk =   0.0017361
        k(    4) = (   0.0000000   0.0000000   0.3750000), wk =   0.0017361
        k(    5) = (   0.0000000   0.0000000  -0.5000000), wk =   0.0008681
        k(    6) = (   0.0000000   0.0833333   0.0000000), wk =   0.0052083
        k(    7) = (   0.0000000   0.0833333   0.1250000), wk =   0.0104167
        k(    8) = (   0.0000000   0.0833333   0.2500000), wk =   0.0104167
        k(    9) = (   0.0000000   0.0833333   0.3750000), wk =   0.0104167
        k(   10) = (   0.0000000   0.0833333  -0.5000000), wk =   0.0052083
        k(   11) = (   0.0000000   0.1666667   0.0000000), wk =   0.0052083
        k(   12) = (   0.0000000   0.1666667   0.1250000), wk =   0.0104167
        k(   13) = (   0.0000000   0.1666667   0.2500000), wk =   0.0104167
        k(   14) = (   0.0000000   0.1666667   0.3750000), wk =   0.0104167
        k(   15) = (   0.0000000   0.1666667  -0.5000000), wk =   0.0052083
        k(   16) = (   0.0000000   0.2500000   0.0000000), wk =   0.0052083
        k(   17) = (   0.0000000   0.2500000   0.1250000), wk =   0.0104167
        k(   18) = (   0.0000000   0.2500000   0.2500000), wk =   0.0104167
        k(   19) = (   0.0000000   0.2500000   0.3750000), wk =   0.0104167
        k(   20) = (   0.0000000   0.2500000  -0.5000000), wk =   0.0052083
        k(   21) = (   0.0000000   0.3333333   0.0000000), wk =   0.0052083
        k(   22) = (   0.0000000   0.3333333   0.1250000), wk =   0.0104167
        k(   23) = (   0.0000000   0.3333333   0.2500000), wk =   0.0104167
        k(   24) = (   0.0000000   0.3333333   0.3750000), wk =   0.0104167
        k(   25) = (   0.0000000   0.3333333  -0.5000000), wk =   0.0052083
        k(   26) = (   0.0000000   0.4166667   0.0000000), wk =   0.0052083
        k(   27) = (   0.0000000   0.4166667   0.1250000), wk =   0.0104167
        k(   28) = (   0.0000000   0.4166667   0.2500000), wk =   0.0104167
        k(   29) = (   0.0000000   0.4166667   0.3750000), wk =   0.0104167
        k(   30) = (   0.0000000   0.4166667  -0.5000000), wk =   0.0052083
        k(   31) = (   0.0000000  -0.5000000   0.0000000), wk =   0.0026042
        k(   32) = (   0.0000000  -0.5000000   0.1250000), wk =   0.0052083
        k(   33) = (   0.0000000  -0.5000000   0.2500000), wk =   0.0052083
        k(   34) = (   0.0000000  -0.5000000   0.3750000), wk =   0.0052083
        k(   35) = (   0.0000000  -0.5000000  -0.5000000), wk =   0.0026042
        k(   36) = (   0.0833333   0.0833333   0.0000000), wk =   0.0052083
        k(   37) = (   0.0833333   0.0833333   0.1250000), wk =   0.0104167
        k(   38) = (   0.0833333   0.0833333   0.2500000), wk =   0.0104167
        k(   39) = (   0.0833333   0.0833333   0.3750000), wk =   0.0104167
        k(   40) = (   0.0833333   0.0833333  -0.5000000), wk =   0.0052083
        k(   41) = (   0.0833333   0.1666667   0.0000000), wk =   0.0104167
        k(   42) = (   0.0833333   0.1666667   0.1250000), wk =   0.0208333
        k(   43) = (   0.0833333   0.1666667   0.2500000), wk =   0.0208333
        k(   44) = (   0.0833333   0.1666667   0.3750000), wk =   0.0208333
        k(   45) = (   0.0833333   0.1666667  -0.5000000), wk =   0.0104167
        k(   46) = (   0.0833333   0.2500000   0.0000000), wk =   0.0104167
        k(   47) = (   0.0833333   0.2500000   0.1250000), wk =   0.0208333
        k(   48) = (   0.0833333   0.2500000   0.2500000), wk =   0.0208333
        k(   49) = (   0.0833333   0.2500000   0.3750000), wk =   0.0208333
        k(   50) = (   0.0833333   0.2500000  -0.5000000), wk =   0.0104167
        k(   51) = (   0.0833333   0.3333333   0.0000000), wk =   0.0104167
        k(   52) = (   0.0833333   0.3333333   0.1250000), wk =   0.0208333
        k(   53) = (   0.0833333   0.3333333   0.2500000), wk =   0.0208333
        k(   54) = (   0.0833333   0.3333333   0.3750000), wk =   0.0208333
        k(   55) = (   0.0833333   0.3333333  -0.5000000), wk =   0.0104167
        k(   56) = (   0.0833333   0.4166667   0.0000000), wk =   0.0104167
        k(   57) = (   0.0833333   0.4166667   0.1250000), wk =   0.0208333
        k(   58) = (   0.0833333   0.4166667   0.2500000), wk =   0.0208333
        k(   59) = (   0.0833333   0.4166667   0.3750000), wk =   0.0208333
        k(   60) = (   0.0833333   0.4166667  -0.5000000), wk =   0.0104167
        k(   61) = (   0.1666667   0.1666667   0.0000000), wk =   0.0052083
        k(   62) = (   0.1666667   0.1666667   0.1250000), wk =   0.0104167
        k(   63) = (   0.1666667   0.1666667   0.2500000), wk =   0.0104167
        k(   64) = (   0.1666667   0.1666667   0.3750000), wk =   0.0104167
        k(   65) = (   0.1666667   0.1666667  -0.5000000), wk =   0.0052083
        k(   66) = (   0.1666667   0.2500000   0.0000000), wk =   0.0104167
        k(   67) = (   0.1666667   0.2500000   0.1250000), wk =   0.0208333
        k(   68) = (   0.1666667   0.2500000   0.2500000), wk =   0.0208333
        k(   69) = (   0.1666667   0.2500000   0.3750000), wk =   0.0208333
        k(   70) = (   0.1666667   0.2500000  -0.5000000), wk =   0.0104167
        k(   71) = (   0.1666667   0.3333333   0.0000000), wk =   0.0104167
        k(   72) = (   0.1666667   0.3333333   0.1250000), wk =   0.0208333
        k(   73) = (   0.1666667   0.3333333   0.2500000), wk =   0.0208333
        k(   74) = (   0.1666667   0.3333333   0.3750000), wk =   0.0208333
        k(   75) = (   0.1666667   0.3333333  -0.5000000), wk =   0.0104167
        k(   76) = (   0.1666667   0.4166667   0.0000000), wk =   0.0052083
        k(   77) = (   0.1666667   0.4166667   0.1250000), wk =   0.0104167
        k(   78) = (   0.1666667   0.4166667   0.2500000), wk =   0.0104167
        k(   79) = (   0.1666667   0.4166667   0.3750000), wk =   0.0104167
        k(   80) = (   0.1666667   0.4166667  -0.5000000), wk =   0.0052083
        k(   81) = (   0.2500000   0.2500000   0.0000000), wk =   0.0052083
        k(   82) = (   0.2500000   0.2500000   0.1250000), wk =   0.0104167
        k(   83) = (   0.2500000   0.2500000   0.2500000), wk =   0.0104167
        k(   84) = (   0.2500000   0.2500000   0.3750000), wk =   0.0104167
        k(   85) = (   0.2500000   0.2500000  -0.5000000), wk =   0.0052083
        k(   86) = (   0.2500000   0.3333333   0.0000000), wk =   0.0104167
        k(   87) = (   0.2500000   0.3333333   0.1250000), wk =   0.0208333
        k(   88) = (   0.2500000   0.3333333   0.2500000), wk =   0.0208333
        k(   89) = (   0.2500000   0.3333333   0.3750000), wk =   0.0208333
        k(   90) = (   0.2500000   0.3333333  -0.5000000), wk =   0.0104167
        k(   91) = (   0.3333333   0.3333333   0.0000000), wk =   0.0017361
        k(   92) = (   0.3333333   0.3333333   0.1250000), wk =   0.0034722
        k(   93) = (   0.3333333   0.3333333   0.2500000), wk =   0.0034722
        k(   94) = (   0.3333333   0.3333333   0.3750000), wk =   0.0034722
        k(   95) = (   0.3333333   0.3333333  -0.5000000), wk =   0.0017361

     Dense  grid:   310909 G-vectors     FFT dimensions: (  81,  81, 108)

     Smooth grid:    59765 G-vectors     FFT dimensions: (  48,  48,  60)

     Dynamical RAM for                 wfc:       6.15 MB

     Dynamical RAM for     wfc (w. buffer):    1175.46 MB

     Dynamical RAM for           str. fact:      14.23 MB

     Dynamical RAM for           local pot:       0.00 MB

     Dynamical RAM for          nlocal pot:      12.31 MB

     Dynamical RAM for                qrad:       7.91 MB

     Dynamical RAM for          rho,v,vnew:      60.90 MB

     Dynamical RAM for               rhoin:      20.30 MB

     Dynamical RAM for            rho*nmix:     151.81 MB

     Dynamical RAM for           G-vectors:      18.25 MB

     Dynamical RAM for          h,s,v(r/c):       0.53 MB

     Dynamical RAM for          <psi|beta>:       0.09 MB

     Dynamical RAM for                 psi:      12.31 MB

     Dynamical RAM for                hpsi:      12.31 MB

     Dynamical RAM for                spsi:      12.31 MB

     Dynamical RAM for      wfcinit/wfcrot:      16.07 MB

     Dynamical RAM for           addusdens:     896.63 MB

     Dynamical RAM for          addusforce:     906.14 MB

     Dynamical RAM for         addusstress:     960.68 MB

     Estimated static dynamical RAM per process >       1.33 GB

     Estimated max dynamical RAM per process >       2.42 GB

     Check: negative core charge=   -0.000009
     Generating pointlists ...
     new r_m :   0.2382 (alat units)  1.8506 (a.u.) for type    1
     new r_m :   0.2382 (alat units)  1.8506 (a.u.) for type    2
     new r_m :   0.2629 (alat units)  2.0431 (a.u.) for type    3

     Initial potential from superposition of free atoms

     starting charge      88.9974, renormalised to      90.0000
     Starting wfcs are   70 randomized atomic wfcs
     Checking if some PAW data can be deallocated... 

     total cpu time spent up to now is       10.8 secs

     per-process dynamical memory:  2051.8 Mb

     Self-consistent Calculation
[tb_dev] Currently allocated     6.21E+00 Mbytes, locked:    0 /  13
[tb_pin] Currently allocated     0.00E+00 Mbytes, locked:    0 /   0

     iteration #  1     ecut=    90.00 Ry     beta= 0.40
     Davidson diagonalization with overlap

---- Real-time Memory Report at c_bands before calling an iterative solver
          2338 MiB given to the printing process from OS
          2024 MiB allocation reported by mallinfo(arena+hblkhd)
         57100 MiB available memory on the node where the printing process lives
     GPU memory used/free/total (MiB): 1306 / 14974 / 16280
------------------
     ethr =  1.00E-02,  avg # of iterations =  2.0

     negative rho (up, down):  0.000E+00 3.273E-05

     total cpu time spent up to now is       19.6 secs

     total energy              =   -1501.89045262 Ry
     estimated scf accuracy    <       1.39331236 Ry

     total magnetization       =    12.64 Bohr mag/cell
     absolute magnetization    =    12.91 Bohr mag/cell
[tb_dev] Currently allocated     6.21E+00 Mbytes, locked:    0 /  11
[tb_pin] Currently allocated     0.00E+00 Mbytes, locked:    0 /   0

     iteration #  2     ecut=    90.00 Ry     beta= 0.40
     Davidson diagonalization with overlap

---- Real-time Memory Report at c_bands before calling an iterative solver
          2512 MiB given to the printing process from OS
         -2031 MiB allocation reported by mallinfo(arena+hblkhd)
         57065 MiB available memory on the node where the printing process lives
     GPU memory used/free/total (MiB): 2378 / 13902 / 16280
------------------
     ethr =  1.55E-03,  avg # of iterations =  2.7

     negative rho (up, down):  0.000E+00 1.936E-05

     total cpu time spent up to now is       29.8 secs

     total energy              =   -1501.56254374 Ry
     estimated scf accuracy    <      11.08238736 Ry

     total magnetization       =     7.21 Bohr mag/cell
     absolute magnetization    =     7.80 Bohr mag/cell
[tb_dev] Currently allocated     6.21E+00 Mbytes, locked:    0 /  11
[tb_pin] Currently allocated     0.00E+00 Mbytes, locked:    0 /   0

     iteration #  3     ecut=    90.00 Ry     beta= 0.40
     Davidson diagonalization with overlap

---- Real-time Memory Report at c_bands before calling an iterative solver
          2651 MiB given to the printing process from OS
         -2009 MiB allocation reported by mallinfo(arena+hblkhd)
         57054 MiB available memory on the node where the printing process lives
     GPU memory used/free/total (MiB): 2482 / 13798 / 16280
------------------
     ethr =  1.55E-03,  avg # of iterations =  2.1

     negative rho (up, down):  0.000E+00 5.108E-05

     total cpu time spent up to now is       39.2 secs

     total energy              =   -1502.25218332 Ry
     estimated scf accuracy    <       0.48900856 Ry

     total magnetization       =    11.63 Bohr mag/cell
     absolute magnetization    =    12.14 Bohr mag/cell
[tb_dev] Currently allocated     6.21E+00 Mbytes, locked:    0 /  11
[tb_pin] Currently allocated     0.00E+00 Mbytes, locked:    0 /   0

     iteration #  4     ecut=    90.00 Ry     beta= 0.40
     Davidson diagonalization with overlap

---- Real-time Memory Report at c_bands before calling an iterative solver
          2789 MiB given to the printing process from OS
         -2000 MiB allocation reported by mallinfo(arena+hblkhd)
         57044 MiB available memory on the node where the printing process lives
     GPU memory used/free/total (MiB): 2482 / 13798 / 16280
------------------
     ethr =  5.43E-04,  avg # of iterations =  1.9

     negative rho (up, down):  0.000E+00 8.073E-05

     total cpu time spent up to now is       48.2 secs

     total energy              =   -1502.35496351 Ry
     estimated scf accuracy    <       0.36397824 Ry

     total magnetization       =    10.40 Bohr mag/cell
     absolute magnetization    =    11.05 Bohr mag/cell
[tb_dev] Currently allocated     6.21E+00 Mbytes, locked:    0 /  11
[tb_pin] Currently allocated     0.00E+00 Mbytes, locked:    0 /   0

     iteration #  5     ecut=    90.00 Ry     beta= 0.40
     Davidson diagonalization with overlap

---- Real-time Memory Report at c_bands before calling an iterative solver
          2838 MiB given to the printing process from OS
         -1991 MiB allocation reported by mallinfo(arena+hblkhd)
         57035 MiB available memory on the node where the printing process lives
     GPU memory used/free/total (MiB): 2482 / 13798 / 16280
------------------
     ethr =  4.04E-04,  avg # of iterations =  1.5

     negative rho (up, down):  0.000E+00 8.177E-05

     total cpu time spent up to now is       56.8 secs

     total energy              =   -1502.38393420 Ry
     estimated scf accuracy    <       0.06549703 Ry

     total magnetization       =     9.80 Bohr mag/cell
     absolute magnetization    =    10.56 Bohr mag/cell
[tb_dev] Currently allocated     6.21E+00 Mbytes, locked:    0 /  11
[tb_pin] Currently allocated     0.00E+00 Mbytes, locked:    0 /   0

     iteration #  6     ecut=    90.00 Ry     beta= 0.40
     Davidson diagonalization with overlap

---- Real-time Memory Report at c_bands before calling an iterative solver
          2886 MiB given to the printing process from OS
         -1983 MiB allocation reported by mallinfo(arena+hblkhd)
         57032 MiB available memory on the node where the printing process lives
     GPU memory used/free/total (MiB): 2482 / 13798 / 16280
------------------
     ethr =  7.28E-05,  avg # of iterations =  2.3

     negative rho (up, down):  0.000E+00 6.525E-05

     total cpu time spent up to now is       66.3 secs

     total energy              =   -1502.39758653 Ry
     estimated scf accuracy    <       0.01049144 Ry

     total magnetization       =     9.03 Bohr mag/cell
     absolute magnetization    =     9.82 Bohr mag/cell
[tb_dev] Currently allocated     6.21E+00 Mbytes, locked:    0 /  11
[tb_pin] Currently allocated     0.00E+00 Mbytes, locked:    0 /   0

     iteration #  7     ecut=    90.00 Ry     beta= 0.40
     Davidson diagonalization with overlap

---- Real-time Memory Report at c_bands before calling an iterative solver
          2932 MiB given to the printing process from OS
         -1976 MiB allocation reported by mallinfo(arena+hblkhd)
         57026 MiB available memory on the node where the printing process lives
     GPU memory used/free/total (MiB): 2482 / 13798 / 16280
------------------
     ethr =  1.17E-05,  avg # of iterations =  3.6

     negative rho (up, down):  0.000E+00 2.647E-05

     total cpu time spent up to now is       77.5 secs

     total energy              =   -1502.39931579 Ry
     estimated scf accuracy    <       0.01283380 Ry

     total magnetization       =     8.59 Bohr mag/cell
     absolute magnetization    =     9.34 Bohr mag/cell
[tb_dev] Currently allocated     6.21E+00 Mbytes, locked:    0 /  11
[tb_pin] Currently allocated     0.00E+00 Mbytes, locked:    0 /   0

     iteration #  8     ecut=    90.00 Ry     beta= 0.40
     Davidson diagonalization with overlap

---- Real-time Memory Report at c_bands before calling an iterative solver
          2981 MiB given to the printing process from OS
         -1969 MiB allocation reported by mallinfo(arena+hblkhd)
         57020 MiB available memory on the node where the printing process lives
     GPU memory used/free/total (MiB): 2482 / 13798 / 16280
------------------
     ethr =  1.17E-05,  avg # of iterations =  2.8

     negative rho (up, down):  0.000E+00 2.327E-05

     total cpu time spent up to now is       87.7 secs

     total energy              =   -1502.40539646 Ry
     estimated scf accuracy    <       0.00152383 Ry

     total magnetization       =     7.90 Bohr mag/cell
     absolute magnetization    =     8.54 Bohr mag/cell
[tb_dev] Currently allocated     6.21E+00 Mbytes, locked:    0 /  11
[tb_pin] Currently allocated     0.00E+00 Mbytes, locked:    0 /   0

     iteration #  9     ecut=    90.00 Ry     beta= 0.40
     Davidson diagonalization with overlap

---- Real-time Memory Report at c_bands before calling an iterative solver
          3022 MiB given to the printing process from OS
         -1959 MiB allocation reported by mallinfo(arena+hblkhd)
         57013 MiB available memory on the node where the printing process lives
     GPU memory used/free/total (MiB): 2482 / 13798 / 16280
------------------
     ethr =  1.69E-06,  avg # of iterations =  4.2

     negative rho (up, down):  0.000E+00 1.015E-05

     total cpu time spent up to now is       99.9 secs

     total energy              =   -1502.40505724 Ry
     estimated scf accuracy    <       0.00063521 Ry

     total magnetization       =     7.80 Bohr mag/cell
     absolute magnetization    =     8.41 Bohr mag/cell
[tb_dev] Currently allocated     6.21E+00 Mbytes, locked:    0 /  11
[tb_pin] Currently allocated     0.00E+00 Mbytes, locked:    0 /   0

     iteration # 10     ecut=    90.00 Ry     beta= 0.40
     Davidson diagonalization with overlap

---- Real-time Memory Report at c_bands before calling an iterative solver
          3053 MiB given to the printing process from OS
         -1952 MiB allocation reported by mallinfo(arena+hblkhd)
         57009 MiB available memory on the node where the printing process lives
     GPU memory used/free/total (MiB): 2482 / 13798 / 16280
------------------
     ethr =  7.06E-07,  avg # of iterations =  3.9

     negative rho (up, down):  0.000E+00 6.091E-06

     total cpu time spent up to now is      111.9 secs

     total energy              =   -1502.40633470 Ry
     estimated scf accuracy    <       0.00139668 Ry

     total magnetization       =     7.41 Bohr mag/cell
     absolute magnetization    =     7.97 Bohr mag/cell
[tb_dev] Currently allocated     6.21E+00 Mbytes, locked:    0 /  11
[tb_pin] Currently allocated     0.00E+00 Mbytes, locked:    0 /   0

     iteration # 11     ecut=    90.00 Ry     beta= 0.40
     Davidson diagonalization with overlap

---- Real-time Memory Report at c_bands before calling an iterative solver
          3056 MiB given to the printing process from OS
         -1948 MiB allocation reported by mallinfo(arena+hblkhd)
         57004 MiB available memory on the node where the printing process lives
     GPU memory used/free/total (MiB): 2482 / 13798 / 16280
------------------
     ethr =  7.06E-07,  avg # of iterations =  3.5

     negative rho (up, down):  0.000E+00 7.306E-06

     total cpu time spent up to now is      122.9 secs

     total energy              =   -1502.40658504 Ry
     estimated scf accuracy    <       0.00034599 Ry

     total magnetization       =     7.36 Bohr mag/cell
     absolute magnetization    =     7.91 Bohr mag/cell
[tb_dev] Currently allocated     6.21E+00 Mbytes, locked:    0 /  11
[tb_pin] Currently allocated     0.00E+00 Mbytes, locked:    0 /   0

     iteration # 12     ecut=    90.00 Ry     beta= 0.40
     Davidson diagonalization with overlap

---- Real-time Memory Report at c_bands before calling an iterative solver
          3061 MiB given to the printing process from OS
         -1945 MiB allocation reported by mallinfo(arena+hblkhd)
         57001 MiB available memory on the node where the printing process lives
     GPU memory used/free/total (MiB): 2482 / 13798 / 16280
------------------
     ethr =  3.84E-07,  avg # of iterations =  2.5

     negative rho (up, down):  0.000E+00 1.441E-06

     total cpu time spent up to now is      132.4 secs

     total energy              =   -1502.40641455 Ry
     estimated scf accuracy    <       0.00077043 Ry

     total magnetization       =     7.39 Bohr mag/cell
     absolute magnetization    =     7.94 Bohr mag/cell
[tb_dev] Currently allocated     6.21E+00 Mbytes, locked:    0 /  11
[tb_pin] Currently allocated     0.00E+00 Mbytes, locked:    0 /   0

     iteration # 13     ecut=    90.00 Ry     beta= 0.40
     Davidson diagonalization with overlap

---- Real-time Memory Report at c_bands before calling an iterative solver
          3066 MiB given to the printing process from OS
         -1941 MiB allocation reported by mallinfo(arena+hblkhd)
         56997 MiB available memory on the node where the printing process lives
     GPU memory used/free/total (MiB): 2482 / 13798 / 16280
------------------
     ethr =  3.84E-07,  avg # of iterations =  3.2

     total cpu time spent up to now is      143.1 secs

     total energy              =   -1502.40675438 Ry
     estimated scf accuracy    <       0.00055345 Ry

     total magnetization       =     7.27 Bohr mag/cell
     absolute magnetization    =     7.81 Bohr mag/cell
[tb_dev] Currently allocated     6.21E+00 Mbytes, locked:    0 /  11
[tb_pin] Currently allocated     0.00E+00 Mbytes, locked:    0 /   0

     iteration # 14     ecut=    90.00 Ry     beta= 0.40
     Davidson diagonalization with overlap

---- Real-time Memory Report at c_bands before calling an iterative solver
          3068 MiB given to the printing process from OS
         -1938 MiB allocation reported by mallinfo(arena+hblkhd)
         56994 MiB available memory on the node where the printing process lives
     GPU memory used/free/total (MiB): 2482 / 13798 / 16280
------------------
     ethr =  3.84E-07,  avg # of iterations =  1.5

     total cpu time spent up to now is      151.6 secs

     total energy              =   -1502.40680773 Ry
     estimated scf accuracy    <       0.00005528 Ry

     total magnetization       =     7.22 Bohr mag/cell
     absolute magnetization    =     7.76 Bohr mag/cell
[tb_dev] Currently allocated     6.21E+00 Mbytes, locked:    0 /  11
[tb_pin] Currently allocated     0.00E+00 Mbytes, locked:    0 /   0

     iteration # 15     ecut=    90.00 Ry     beta= 0.40
     Davidson diagonalization with overlap

---- Real-time Memory Report at c_bands before calling an iterative solver
          3073 MiB given to the printing process from OS
         -1934 MiB allocation reported by mallinfo(arena+hblkhd)
         56991 MiB available memory on the node where the printing process lives
     GPU memory used/free/total (MiB): 2482 / 13798 / 16280
------------------
     ethr =  6.14E-08,  avg # of iterations =  2.2

     total cpu time spent up to now is      161.0 secs

     total energy              =   -1502.40666156 Ry
     estimated scf accuracy    <       0.00003680 Ry

     total magnetization       =     7.22 Bohr mag/cell
     absolute magnetization    =     7.76 Bohr mag/cell
[tb_dev] Currently allocated     6.21E+00 Mbytes, locked:    0 /  11
[tb_pin] Currently allocated     0.00E+00 Mbytes, locked:    0 /   0

     iteration # 16     ecut=    90.00 Ry     beta= 0.40
     Davidson diagonalization with overlap

---- Real-time Memory Report at c_bands before calling an iterative solver
          3076 MiB given to the printing process from OS
         -1930 MiB allocation reported by mallinfo(arena+hblkhd)
         56983 MiB available memory on the node where the printing process lives
     GPU memory used/free/total (MiB): 2482 / 13798 / 16280
------------------
     ethr =  4.09E-08,  avg # of iterations =  4.4

     total cpu time spent up to now is      173.9 secs

     total energy              =   -1502.40683672 Ry
     estimated scf accuracy    <       0.00000743 Ry

     total magnetization       =     7.13 Bohr mag/cell
     absolute magnetization    =     7.66 Bohr mag/cell
[tb_dev] Currently allocated     6.21E+00 Mbytes, locked:    0 /  11
[tb_pin] Currently allocated     0.00E+00 Mbytes, locked:    0 /   0

     iteration # 17     ecut=    90.00 Ry     beta= 0.40
     Davidson diagonalization with overlap

---- Real-time Memory Report at c_bands before calling an iterative solver
          3083 MiB given to the printing process from OS
         -1927 MiB allocation reported by mallinfo(arena+hblkhd)
         56981 MiB available memory on the node where the printing process lives
     GPU memory used/free/total (MiB): 2482 / 13798 / 16280
------------------
     ethr =  8.25E-09,  avg # of iterations =  4.5

     total cpu time spent up to now is      187.4 secs

     total energy              =   -1502.40687844 Ry
     estimated scf accuracy    <       0.00000124 Ry

     total magnetization       =     7.08 Bohr mag/cell
     absolute magnetization    =     7.61 Bohr mag/cell
[tb_dev] Currently allocated     6.21E+00 Mbytes, locked:    0 /  11
[tb_pin] Currently allocated     0.00E+00 Mbytes, locked:    0 /   0

     iteration # 18     ecut=    90.00 Ry     beta= 0.40
     Davidson diagonalization with overlap

---- Real-time Memory Report at c_bands before calling an iterative solver
          3087 MiB given to the printing process from OS
         -1923 MiB allocation reported by mallinfo(arena+hblkhd)
         56976 MiB available memory on the node where the printing process lives
     GPU memory used/free/total (MiB): 2482 / 13798 / 16280
------------------
     ethr =  1.38E-09,  avg # of iterations =  4.8

     total cpu time spent up to now is      201.4 secs

     total energy              =   -1502.40688893 Ry
     estimated scf accuracy    <       0.00000119 Ry

     total magnetization       =     7.05 Bohr mag/cell
     absolute magnetization    =     7.58 Bohr mag/cell
[tb_dev] Currently allocated     6.21E+00 Mbytes, locked:    0 /  11
[tb_pin] Currently allocated     0.00E+00 Mbytes, locked:    0 /   0

     iteration # 19     ecut=    90.00 Ry     beta= 0.40
     Davidson diagonalization with overlap

---- Real-time Memory Report at c_bands before calling an iterative solver
          3090 MiB given to the printing process from OS
         -1919 MiB allocation reported by mallinfo(arena+hblkhd)
         56972 MiB available memory on the node where the printing process lives
     GPU memory used/free/total (MiB): 2482 / 13798 / 16280
------------------
     ethr =  1.32E-09,  avg # of iterations =  3.5

     total cpu time spent up to now is      212.7 secs

     total energy              =   -1502.40689273 Ry
     estimated scf accuracy    <       0.00000019 Ry

     total magnetization       =     7.04 Bohr mag/cell
     absolute magnetization    =     7.57 Bohr mag/cell
[tb_dev] Currently allocated     6.21E+00 Mbytes, locked:    0 /  11
[tb_pin] Currently allocated     0.00E+00 Mbytes, locked:    0 /   0

     iteration # 20     ecut=    90.00 Ry     beta= 0.40
     Davidson diagonalization with overlap

---- Real-time Memory Report at c_bands before calling an iterative solver
          3095 MiB given to the printing process from OS
         -1916 MiB allocation reported by mallinfo(arena+hblkhd)
         56971 MiB available memory on the node where the printing process lives
     GPU memory used/free/total (MiB): 2482 / 13798 / 16280
------------------
     ethr =  2.09E-10,  avg # of iterations =  2.3

     total cpu time spent up to now is      222.3 secs

     total energy              =   -1502.40689298 Ry
     estimated scf accuracy    <       0.00000022 Ry

     total magnetization       =     7.04 Bohr mag/cell
     absolute magnetization    =     7.57 Bohr mag/cell
[tb_dev] Currently allocated     6.21E+00 Mbytes, locked:    0 /  11
[tb_pin] Currently allocated     0.00E+00 Mbytes, locked:    0 /   0

     iteration # 21     ecut=    90.00 Ry     beta= 0.40
     Davidson diagonalization with overlap

---- Real-time Memory Report at c_bands before calling an iterative solver
          3098 MiB given to the printing process from OS
         -1912 MiB allocation reported by mallinfo(arena+hblkhd)
         56965 MiB available memory on the node where the printing process lives
     GPU memory used/free/total (MiB): 2482 / 13798 / 16280
------------------
     ethr =  2.09E-10,  avg # of iterations =  2.2

     total cpu time spent up to now is      231.7 secs

     total energy              =   -1502.40688767 Ry
     estimated scf accuracy    <       0.00000051 Ry

     total magnetization       =     7.04 Bohr mag/cell
     absolute magnetization    =     7.56 Bohr mag/cell
[tb_dev] Currently allocated     6.21E+00 Mbytes, locked:    0 /  11
[tb_pin] Currently allocated     0.00E+00 Mbytes, locked:    0 /   0

     iteration # 22     ecut=    90.00 Ry     beta= 0.40
     Davidson diagonalization with overlap

---- Real-time Memory Report at c_bands before calling an iterative solver
          3103 MiB given to the printing process from OS
         -1908 MiB allocation reported by mallinfo(arena+hblkhd)
         56961 MiB available memory on the node where the printing process lives
     GPU memory used/free/total (MiB): 2482 / 13798 / 16280
------------------
     ethr =  2.09E-10,  avg # of iterations =  5.1

     total cpu time spent up to now is      246.3 secs

     total energy              =   -1502.40689051 Ry
     estimated scf accuracy    <       0.00000048 Ry

     total magnetization       =     7.01 Bohr mag/cell
     absolute magnetization    =     7.54 Bohr mag/cell
[tb_dev] Currently allocated     6.21E+00 Mbytes, locked:    0 /  11
[tb_pin] Currently allocated     0.00E+00 Mbytes, locked:    0 /   0

     iteration # 23     ecut=    90.00 Ry     beta= 0.40
     Davidson diagonalization with overlap

---- Real-time Memory Report at c_bands before calling an iterative solver
          3106 MiB given to the printing process from OS
         -1905 MiB allocation reported by mallinfo(arena+hblkhd)
         56957 MiB available memory on the node where the printing process lives
     GPU memory used/free/total (MiB): 2482 / 13798 / 16280
------------------
     ethr =  2.09E-10,  avg # of iterations =  4.4

     total cpu time spent up to now is      259.5 secs

     total energy              =   -1502.40689229 Ry
     estimated scf accuracy    <       0.00000019 Ry

     total magnetization       =     7.03 Bohr mag/cell
     absolute magnetization    =     7.56 Bohr mag/cell
[tb_dev] Currently allocated     6.21E+00 Mbytes, locked:    0 /  11
[tb_pin] Currently allocated     0.00E+00 Mbytes, locked:    0 /   0

     iteration # 24     ecut=    90.00 Ry     beta= 0.40
     Davidson diagonalization with overlap

---- Real-time Memory Report at c_bands before calling an iterative solver
          3110 MiB given to the printing process from OS
         -1901 MiB allocation reported by mallinfo(arena+hblkhd)
         56955 MiB available memory on the node where the printing process lives
     GPU memory used/free/total (MiB): 2482 / 13798 / 16280
------------------
     ethr =  2.09E-10,  avg # of iterations =  4.1

     total cpu time spent up to now is      271.7 secs

     total energy              =   -1502.40687061 Ry
     estimated scf accuracy    <       0.00000018 Ry

     total magnetization       =     7.04 Bohr mag/cell
     absolute magnetization    =     7.56 Bohr mag/cell
[tb_dev] Currently allocated     6.21E+00 Mbytes, locked:    0 /  11
[tb_pin] Currently allocated     0.00E+00 Mbytes, locked:    0 /   0

     iteration # 25     ecut=    90.00 Ry     beta= 0.40
     Davidson diagonalization with overlap

---- Real-time Memory Report at c_bands before calling an iterative solver
          3115 MiB given to the printing process from OS
         -1897 MiB allocation reported by mallinfo(arena+hblkhd)
         56953 MiB available memory on the node where the printing process lives
     GPU memory used/free/total (MiB): 2482 / 13798 / 16280
------------------
     ethr =  2.00E-10,  avg # of iterations =  6.1

     total cpu time spent up to now is      288.3 secs

     total energy              =   -1502.40689520 Ry
     estimated scf accuracy    <       0.00000018 Ry

     total magnetization       =     6.99 Bohr mag/cell
     absolute magnetization    =     7.52 Bohr mag/cell
[tb_dev] Currently allocated     6.21E+00 Mbytes, locked:    0 /  11
[tb_pin] Currently allocated     0.00E+00 Mbytes, locked:    0 /   0

     iteration # 26     ecut=    90.00 Ry     beta= 0.40
     Davidson diagonalization with overlap

---- Real-time Memory Report at c_bands before calling an iterative solver
          3118 MiB given to the printing process from OS
         -1894 MiB allocation reported by mallinfo(arena+hblkhd)
         56947 MiB available memory on the node where the printing process lives
     GPU memory used/free/total (MiB): 2482 / 13798 / 16280
------------------
     ethr =  1.98E-10,  avg # of iterations =  4.2

     total cpu time spent up to now is      301.1 secs

     total energy              =   -1502.40678809 Ry
     estimated scf accuracy    <       0.00000022 Ry

     total magnetization       =     6.98 Bohr mag/cell
     absolute magnetization    =     7.51 Bohr mag/cell
[tb_dev] Currently allocated     6.21E+00 Mbytes, locked:    0 /  11
[tb_pin] Currently allocated     0.00E+00 Mbytes, locked:    0 /   0

     iteration # 27     ecut=    90.00 Ry     beta= 0.40
     Davidson diagonalization with overlap

---- Real-time Memory Report at c_bands before calling an iterative solver
          3123 MiB given to the printing process from OS
         -1890 MiB allocation reported by mallinfo(arena+hblkhd)
         56942 MiB available memory on the node where the printing process lives
     GPU memory used/free/total (MiB): 2482 / 13798 / 16280
------------------
     ethr =  1.98E-10,  avg # of iterations =  8.0

     total cpu time spent up to now is      321.6 secs

     total energy              =   -1502.40666880 Ry
     estimated scf accuracy    <       0.00000027 Ry

     total magnetization       =     7.08 Bohr mag/cell
     absolute magnetization    =     7.61 Bohr mag/cell
[tb_dev] Currently allocated     6.21E+00 Mbytes, locked:    0 /  11
[tb_pin] Currently allocated     0.00E+00 Mbytes, locked:    0 /   0

     iteration # 28     ecut=    90.00 Ry     beta= 0.40
     Davidson diagonalization with overlap

---- Real-time Memory Report at c_bands before calling an iterative solver
          3127 MiB given to the printing process from OS
         -1886 MiB allocation reported by mallinfo(arena+hblkhd)
         56942 MiB available memory on the node where the printing process lives
     GPU memory used/free/total (MiB): 2482 / 13798 / 16280
------------------
     ethr =  1.98E-10,  avg # of iterations =  8.8

     total cpu time spent up to now is      343.6 secs

     total energy              =   -1502.40649544 Ry
     estimated scf accuracy    <       0.00000093 Ry

     total magnetization       =     6.93 Bohr mag/cell
     absolute magnetization    =     7.46 Bohr mag/cell
[tb_dev] Currently allocated     6.21E+00 Mbytes, locked:    0 /  11
[tb_pin] Currently allocated     0.00E+00 Mbytes, locked:    0 /   0

     iteration # 29     ecut=    90.00 Ry     beta= 0.40
     Davidson diagonalization with overlap

---- Real-time Memory Report at c_bands before calling an iterative solver
          3130 MiB given to the printing process from OS
         -1883 MiB allocation reported by mallinfo(arena+hblkhd)
         56938 MiB available memory on the node where the printing process lives
     GPU memory used/free/total (MiB): 2482 / 13798 / 16280
------------------
     ethr =  1.98E-10,  avg # of iterations =  9.5

     total cpu time spent up to now is      366.8 secs

     total energy              =   -1502.40496540 Ry
     estimated scf accuracy    <       0.00000252 Ry

     total magnetization       =     7.12 Bohr mag/cell
     absolute magnetization    =     7.65 Bohr mag/cell
[tb_dev] Currently allocated     6.21E+00 Mbytes, locked:    0 /  11
[tb_pin] Currently allocated     0.00E+00 Mbytes, locked:    0 /   0

     iteration # 30     ecut=    90.00 Ry     beta= 0.40
     Davidson diagonalization with overlap

---- Real-time Memory Report at c_bands before calling an iterative solver
          3137 MiB given to the printing process from OS
         -1879 MiB allocation reported by mallinfo(arena+hblkhd)
         56935 MiB available memory on the node where the printing process lives
     GPU memory used/free/total (MiB): 2482 / 13798 / 16280
------------------
     ethr =  1.98E-10,  avg # of iterations = 11.8

     total cpu time spent up to now is      394.5 secs

     total energy              =   -1502.40599321 Ry
     estimated scf accuracy    <       0.00004185 Ry

     total magnetization       =     6.69 Bohr mag/cell
     absolute magnetization    =     7.21 Bohr mag/cell
[tb_dev] Currently allocated     6.21E+00 Mbytes, locked:    0 /  11
[tb_pin] Currently allocated     0.00E+00 Mbytes, locked:    0 /   0

     iteration # 31     ecut=    90.00 Ry     beta= 0.40
     Davidson diagonalization with overlap

---- Real-time Memory Report at c_bands before calling an iterative solver
          3140 MiB given to the printing process from OS
         -1875 MiB allocation reported by mallinfo(arena+hblkhd)
         56915 MiB available memory on the node where the printing process lives
     GPU memory used/free/total (MiB): 2482 / 13798 / 16280
------------------
     ethr =  1.98E-10,  avg # of iterations = 10.4

     total cpu time spent up to now is      419.5 secs

     total energy              =   -1502.40689647 Ry
     estimated scf accuracy    <       0.00000114 Ry

     total magnetization       =     6.98 Bohr mag/cell
     absolute magnetization    =     7.50 Bohr mag/cell
[tb_dev] Currently allocated     6.21E+00 Mbytes, locked:    0 /  11
[tb_pin] Currently allocated     0.00E+00 Mbytes, locked:    0 /   0

     iteration # 32     ecut=    90.00 Ry     beta= 0.40
     Davidson diagonalization with overlap

---- Real-time Memory Report at c_bands before calling an iterative solver
          3145 MiB given to the printing process from OS
         -1871 MiB allocation reported by mallinfo(arena+hblkhd)
         56920 MiB available memory on the node where the printing process lives
     GPU memory used/free/total (MiB): 2482 / 13798 / 16280
------------------
     ethr =  1.98E-10,  avg # of iterations =  3.0

     total cpu time spent up to now is      430.0 secs

     total energy              =   -1502.40688332 Ry
     estimated scf accuracy    <       0.00000166 Ry

     total magnetization       =     6.97 Bohr mag/cell
     absolute magnetization    =     7.50 Bohr mag/cell
[tb_dev] Currently allocated     6.21E+00 Mbytes, locked:    0 /  11
[tb_pin] Currently allocated     0.00E+00 Mbytes, locked:    0 /   0

     iteration # 33     ecut=    90.00 Ry     beta= 0.40
     Davidson diagonalization with overlap

---- Real-time Memory Report at c_bands before calling an iterative solver
          3147 MiB given to the printing process from OS
         -1867 MiB allocation reported by mallinfo(arena+hblkhd)
         56916 MiB available memory on the node where the printing process lives
     GPU memory used/free/total (MiB): 2482 / 13798 / 16280
------------------
     ethr =  1.98E-10,  avg # of iterations =  5.6

     total cpu time spent up to now is      445.4 secs

     total energy              =   -1502.40688278 Ry
     estimated scf accuracy    <       0.00000135 Ry

     total magnetization       =     7.01 Bohr mag/cell
     absolute magnetization    =     7.53 Bohr mag/cell
[tb_dev] Currently allocated     6.21E+00 Mbytes, locked:    0 /  11
[tb_pin] Currently allocated     0.00E+00 Mbytes, locked:    0 /   0

     iteration # 34     ecut=    90.00 Ry     beta= 0.40
     Davidson diagonalization with overlap

---- Real-time Memory Report at c_bands before calling an iterative solver
          3152 MiB given to the printing process from OS
         -1863 MiB allocation reported by mallinfo(arena+hblkhd)
         56912 MiB available memory on the node where the printing process lives
     GPU memory used/free/total (MiB): 2482 / 13798 / 16280
------------------
     ethr =  1.98E-10,  avg # of iterations =  5.6

     total cpu time spent up to now is      461.0 secs

     total energy              =   -1502.40686954 Ry
     estimated scf accuracy    <       0.00000164 Ry

     total magnetization       =     7.04 Bohr mag/cell
     absolute magnetization    =     7.56 Bohr mag/cell
[tb_dev] Currently allocated     6.21E+00 Mbytes, locked:    0 /  11
[tb_pin] Currently allocated     0.00E+00 Mbytes, locked:    0 /   0

     iteration # 35     ecut=    90.00 Ry     beta= 0.40
     Davidson diagonalization with overlap

---- Real-time Memory Report at c_bands before calling an iterative solver
          3156 MiB given to the printing process from OS
         -1859 MiB allocation reported by mallinfo(arena+hblkhd)
         56909 MiB available memory on the node where the printing process lives
     GPU memory used/free/total (MiB): 2482 / 13798 / 16280
------------------
     ethr =  1.98E-10,  avg # of iterations =  6.3

     total cpu time spent up to now is      477.8 secs

     total energy              =   -1502.40687082 Ry
     estimated scf accuracy    <       0.00000261 Ry

     total magnetization       =     7.08 Bohr mag/cell
     absolute magnetization    =     7.61 Bohr mag/cell
[tb_dev] Currently allocated     6.21E+00 Mbytes, locked:    0 /  11
[tb_pin] Currently allocated     0.00E+00 Mbytes, locked:    0 /   0

     iteration # 36     ecut=    90.00 Ry     beta= 0.40
     Davidson diagonalization with overlap

---- Real-time Memory Report at c_bands before calling an iterative solver
          3159 MiB given to the printing process from OS
         -1855 MiB allocation reported by mallinfo(arena+hblkhd)
         56909 MiB available memory on the node where the printing process lives
     GPU memory used/free/total (MiB): 2482 / 13798 / 16280
------------------
     ethr =  1.98E-10,  avg # of iterations =  6.0

     total cpu time spent up to now is      494.3 secs

     total energy              =   -1502.40688860 Ry
     estimated scf accuracy    <       0.00000152 Ry

     total magnetization       =     7.03 Bohr mag/cell
     absolute magnetization    =     7.56 Bohr mag/cell
[tb_dev] Currently allocated     6.21E+00 Mbytes, locked:    0 /  11
[tb_pin] Currently allocated     0.00E+00 Mbytes, locked:    0 /   0

     iteration # 37     ecut=    90.00 Ry     beta= 0.40
     Davidson diagonalization with overlap

---- Real-time Memory Report at c_bands before calling an iterative solver
          3165 MiB given to the printing process from OS
         -1851 MiB allocation reported by mallinfo(arena+hblkhd)
         56903 MiB available memory on the node where the printing process lives
     GPU memory used/free/total (MiB): 2482 / 13798 / 16280
------------------
     ethr =  1.98E-10,  avg # of iterations =  5.2

     total cpu time spent up to now is      509.2 secs

     total energy              =   -1502.40687328 Ry
     estimated scf accuracy    <       0.00000130 Ry

     total magnetization       =     7.01 Bohr mag/cell
     absolute magnetization    =     7.54 Bohr mag/cell
[tb_dev] Currently allocated     6.21E+00 Mbytes, locked:    0 /  11
[tb_pin] Currently allocated     0.00E+00 Mbytes, locked:    0 /   0

     iteration # 38     ecut=    90.00 Ry     beta= 0.40
     Davidson diagonalization with overlap

---- Real-time Memory Report at c_bands before calling an iterative solver
          3167 MiB given to the printing process from OS
         -1847 MiB allocation reported by mallinfo(arena+hblkhd)
         56897 MiB available memory on the node where the printing process lives
     GPU memory used/free/total (MiB): 2482 / 13798 / 16280
------------------
     ethr =  1.98E-10,  avg # of iterations =  6.5

     total cpu time spent up to now is      526.3 secs

     total energy              =   -1502.40689698 Ry
     estimated scf accuracy    <       0.00000144 Ry

     total magnetization       =     6.97 Bohr mag/cell
     absolute magnetization    =     7.49 Bohr mag/cell
[tb_dev] Currently allocated     6.21E+00 Mbytes, locked:    0 /  11
[tb_pin] Currently allocated     0.00E+00 Mbytes, locked:    0 /   0

     iteration # 39     ecut=    90.00 Ry     beta= 0.40
     Davidson diagonalization with overlap

---- Real-time Memory Report at c_bands before calling an iterative solver
          3173 MiB given to the printing process from OS
         -1843 MiB allocation reported by mallinfo(arena+hblkhd)
         56895 MiB available memory on the node where the printing process lives
     GPU memory used/free/total (MiB): 2482 / 13798 / 16280
------------------
     ethr =  1.98E-10,  avg # of iterations =  2.3

     total cpu time spent up to now is      536.0 secs

     total energy              =   -1502.40685443 Ry
     estimated scf accuracy    <       0.00000142 Ry

     total magnetization       =     6.97 Bohr mag/cell
     absolute magnetization    =     7.49 Bohr mag/cell
[tb_dev] Currently allocated     6.21E+00 Mbytes, locked:    0 /  11
[tb_pin] Currently allocated     0.00E+00 Mbytes, locked:    0 /   0

     iteration # 40     ecut=    90.00 Ry     beta= 0.40
     Davidson diagonalization with overlap

---- Real-time Memory Report at c_bands before calling an iterative solver
          3175 MiB given to the printing process from OS
         -1839 MiB allocation reported by mallinfo(arena+hblkhd)
         56891 MiB available memory on the node where the printing process lives
     GPU memory used/free/total (MiB): 2482 / 13798 / 16280
------------------
     ethr =  1.98E-10,  avg # of iterations =  7.1

     total cpu time spent up to now is      554.2 secs

     total energy              =   -1502.40688994 Ry
     estimated scf accuracy    <       0.00000255 Ry

     total magnetization       =     6.90 Bohr mag/cell
     absolute magnetization    =     7.42 Bohr mag/cell
[tb_dev] Currently allocated     6.21E+00 Mbytes, locked:    0 /  11
[tb_pin] Currently allocated     0.00E+00 Mbytes, locked:    0 /   0

     iteration # 41     ecut=    90.00 Ry     beta= 0.40
     Davidson diagonalization with overlap

---- Real-time Memory Report at c_bands before calling an iterative solver
          3180 MiB given to the printing process from OS
         -1835 MiB allocation reported by mallinfo(arena+hblkhd)
         56885 MiB available memory on the node where the printing process lives
     GPU memory used/free/total (MiB): 2482 / 13798 / 16280
------------------
     ethr =  1.98E-10,  avg # of iterations =  5.9

     total cpu time spent up to now is      570.3 secs

     total energy              =   -1502.40681209 Ry
     estimated scf accuracy    <       0.00000459 Ry

     total magnetization       =     6.87 Bohr mag/cell
     absolute magnetization    =     7.38 Bohr mag/cell
[tb_dev] Currently allocated     6.21E+00 Mbytes, locked:    0 /  11
[tb_pin] Currently allocated     0.00E+00 Mbytes, locked:    0 /   0

     iteration # 42     ecut=    90.00 Ry     beta= 0.40
     Davidson diagonalization with overlap

---- Real-time Memory Report at c_bands before calling an iterative solver
          3187 MiB given to the printing process from OS
         -1825 MiB allocation reported by mallinfo(arena+hblkhd)
         56876 MiB available memory on the node where the printing process lives
     GPU memory used/free/total (MiB): 2482 / 13798 / 16280
------------------
     ethr =  1.98E-10,  avg # of iterations =  7.6

     total cpu time spent up to now is      589.8 secs

     total energy              =   -1502.40689075 Ry
     estimated scf accuracy    <       0.00000146 Ry

     total magnetization       =     6.95 Bohr mag/cell
     absolute magnetization    =     7.48 Bohr mag/cell
[tb_dev] Currently allocated     6.21E+00 Mbytes, locked:    0 /  11
[tb_pin] Currently allocated     0.00E+00 Mbytes, locked:    0 /   0

     iteration # 43     ecut=    90.00 Ry     beta= 0.40
     Davidson diagonalization with overlap

---- Real-time Memory Report at c_bands before calling an iterative solver
          3188 MiB given to the printing process from OS
         -1821 MiB allocation reported by mallinfo(arena+hblkhd)
         56875 MiB available memory on the node where the printing process lives
     GPU memory used/free/total (MiB): 2482 / 13798 / 16280
------------------
     ethr =  1.98E-10,  avg # of iterations =  5.1

     total cpu time spent up to now is      604.5 secs

     total energy              =   -1502.40687901 Ry
     estimated scf accuracy    <       0.00000125 Ry

     total magnetization       =     6.98 Bohr mag/cell
     absolute magnetization    =     7.50 Bohr mag/cell
[tb_dev] Currently allocated     6.21E+00 Mbytes, locked:    0 /  11
[tb_pin] Currently allocated     0.00E+00 Mbytes, locked:    0 /   0

     iteration # 44     ecut=    90.00 Ry     beta= 0.40
     Davidson diagonalization with overlap

---- Real-time Memory Report at c_bands before calling an iterative solver
          3197 MiB given to the printing process from OS
         -1817 MiB allocation reported by mallinfo(arena+hblkhd)
         56868 MiB available memory on the node where the printing process lives
     GPU memory used/free/total (MiB): 2482 / 13798 / 16280
------------------
     ethr =  1.98E-10,  avg # of iterations =  5.8

     total cpu time spent up to now is      620.6 secs

     total energy              =   -1502.40689068 Ry
     estimated scf accuracy    <       0.00000118 Ry

     total magnetization       =     7.01 Bohr mag/cell
     absolute magnetization    =     7.54 Bohr mag/cell
[tb_dev] Currently allocated     6.21E+00 Mbytes, locked:    0 /  11
[tb_pin] Currently allocated     0.00E+00 Mbytes, locked:    0 /   0

     iteration # 45     ecut=    90.00 Ry     beta= 0.40
     Davidson diagonalization with overlap

---- Real-time Memory Report at c_bands before calling an iterative solver
          3200 MiB given to the printing process from OS
         -1813 MiB allocation reported by mallinfo(arena+hblkhd)
         56867 MiB available memory on the node where the printing process lives
     GPU memory used/free/total (MiB): 2482 / 13798 / 16280
------------------
     ethr =  1.98E-10,  avg # of iterations =  4.7

     total cpu time spent up to now is      634.5 secs

     total energy              =   -1502.40689366 Ry
     estimated scf accuracy    <       0.00000133 Ry

     total magnetization       =     7.03 Bohr mag/cell
     absolute magnetization    =     7.56 Bohr mag/cell
[tb_dev] Currently allocated     6.21E+00 Mbytes, locked:    0 /  11
[tb_pin] Currently allocated     0.00E+00 Mbytes, locked:    0 /   0

     iteration # 46     ecut=    90.00 Ry     beta= 0.40
     Davidson diagonalization with overlap

---- Real-time Memory Report at c_bands before calling an iterative solver
          3203 MiB given to the printing process from OS
         -1805 MiB allocation reported by mallinfo(arena+hblkhd)
         56856 MiB available memory on the node where the printing process lives
     GPU memory used/free/total (MiB): 2482 / 13798 / 16280
------------------
     ethr =  1.98E-10,  avg # of iterations =  1.0

     total cpu time spent up to now is      642.5 secs

     total energy              =   -1502.40689325 Ry
     estimated scf accuracy    <       0.00000133 Ry

     total magnetization       =     7.03 Bohr mag/cell
     absolute magnetization    =     7.56 Bohr mag/cell
[tb_dev] Currently allocated     6.21E+00 Mbytes, locked:    0 /  11
[tb_pin] Currently allocated     0.00E+00 Mbytes, locked:    0 /   0

     iteration # 47     ecut=    90.00 Ry     beta= 0.40
     Davidson diagonalization with overlap

---- Real-time Memory Report at c_bands before calling an iterative solver
          3209 MiB given to the printing process from OS
         -1801 MiB allocation reported by mallinfo(arena+hblkhd)
         56849 MiB available memory on the node where the printing process lives
     GPU memory used/free/total (MiB): 2482 / 13798 / 16280
------------------
     ethr =  1.98E-10,  avg # of iterations =  2.5

     total cpu time spent up to now is      652.3 secs

     total energy              =   -1502.40687684 Ry
     estimated scf accuracy    <       0.00000140 Ry

     total magnetization       =     7.04 Bohr mag/cell
     absolute magnetization    =     7.56 Bohr mag/cell
[tb_dev] Currently allocated     6.21E+00 Mbytes, locked:    0 /  11
[tb_pin] Currently allocated     0.00E+00 Mbytes, locked:    0 /   0

     iteration # 48     ecut=    90.00 Ry     beta= 0.40
     Davidson diagonalization with overlap

---- Real-time Memory Report at c_bands before calling an iterative solver
          3212 MiB given to the printing process from OS
         -1797 MiB allocation reported by mallinfo(arena+hblkhd)
         56846 MiB available memory on the node where the printing process lives
     GPU memory used/free/total (MiB): 2482 / 13798 / 16280
------------------
     ethr =  1.98E-10,  avg # of iterations =  5.8

     total cpu time spent up to now is      668.4 secs

     total energy              =   -1502.40689122 Ry
     estimated scf accuracy    <       0.00000197 Ry

     total magnetization       =     7.07 Bohr mag/cell
     absolute magnetization    =     7.60 Bohr mag/cell
[tb_dev] Currently allocated     6.21E+00 Mbytes, locked:    0 /  11
[tb_pin] Currently allocated     0.00E+00 Mbytes, locked:    0 /   0

     iteration # 49     ecut=    90.00 Ry     beta= 0.40
     Davidson diagonalization with overlap

---- Real-time Memory Report at c_bands before calling an iterative solver
          3220 MiB given to the printing process from OS
         -1793 MiB allocation reported by mallinfo(arena+hblkhd)
[...]
[tb_pin] Currently allocated     0.00E+00 Mbytes, locked:    0 /   0

     iteration # 65     ecut=    90.00 Ry     beta= 0.40
     Davidson diagonalization with overlap

---- Real-time Memory Report at c_bands before calling an iterative solver
          3287 MiB given to the printing process from OS
         -1729 MiB allocation reported by mallinfo(arena+hblkhd)
         56776 MiB available memory on the node where the printing process lives
     GPU memory used/free/total (MiB): 2482 / 13798 / 16280
------------------
     ethr =  1.98E-10,  avg # of iterations =  6.1

     total cpu time spent up to now is      970.6 secs

     total energy              =   -1502.40689455 Ry
     estimated scf accuracy    <       0.00000139 Ry

     total magnetization       =     6.96 Bohr mag/cell
     absolute magnetization    =     7.49 Bohr mag/cell
[tb_dev] Currently allocated     6.21E+00 Mbytes, locked:    0 /  11
[tb_pin] Currently allocated     0.00E+00 Mbytes, locked:    0 /   0

     iteration # 66     ecut=    90.00 Ry     beta= 0.40
     Davidson diagonalization with overlap

---- Real-time Memory Report at c_bands before calling an iterative solver
          3292 MiB given to the printing process from OS
         -1724 MiB allocation reported by mallinfo(arena+hblkhd)
         56777 MiB available memory on the node where the printing process lives
     GPU memory used/free/total (MiB): 2482 / 13798 / 16280
------------------
     ethr =  1.98E-10,  avg # of iterations =  4.2

     total cpu time spent up to now is      983.5 secs

     total energy              =   -1502.40689335 Ry
     estimated scf accuracy    <       0.00000129 Ry

     total magnetization       =     6.98 Bohr mag/cell
     absolute magnetization    =     7.50 Bohr mag/cell
[tb_dev] Currently allocated     6.21E+00 Mbytes, locked:    0 /  11
[tb_pin] Currently allocated     0.00E+00 Mbytes, locked:    0 /   0

     iteration # 67     ecut=    90.00 Ry     beta= 0.40
     Davidson diagonalization with overlap

---- Real-time Memory Report at c_bands before calling an iterative solver
          3295 MiB given to the printing process from OS
         -1720 MiB allocation reported by mallinfo(arena+hblkhd)
         56771 MiB available memory on the node where the printing process lives
     GPU memory used/free/total (MiB): 2482 / 13798 / 16280
------------------
     ethr =  1.98E-10,  avg # of iterations =  4.6

     total cpu time spent up to now is      997.1 secs

     total energy              =   -1502.40689354 Ry
     estimated scf accuracy    <       0.00000125 Ry

     total magnetization       =     6.99 Bohr mag/cell
     absolute magnetization    =     7.52 Bohr mag/cell
[tb_dev] Currently allocated     6.21E+00 Mbytes, locked:    0 /  11
[tb_pin] Currently allocated     0.00E+00 Mbytes, locked:    0 /   0

     iteration # 68     ecut=    90.00 Ry     beta= 0.40
     Davidson diagonalization with overlap

---- Real-time Memory Report at c_bands before calling an iterative solver
          3300 MiB given to the printing process from OS
         -1716 MiB allocation reported by mallinfo(arena+hblkhd)
         56766 MiB available memory on the node where the printing process lives
     GPU memory used/free/total (MiB): 2482 / 13798 / 16280
------------------
     ethr =  1.98E-10,  avg # of iterations =  4.6

     total cpu time spent up to now is     1010.8 secs

     total energy              =   -1502.40689537 Ry
     estimated scf accuracy    <       0.00000130 Ry

     total magnetization       =     6.97 Bohr mag/cell
     absolute magnetization    =     7.50 Bohr mag/cell
[tb_dev] Currently allocated     6.21E+00 Mbytes, locked:    0 /  11
[tb_pin] Currently allocated     0.00E+00 Mbytes, locked:    0 /   0

     iteration # 69     ecut=    90.00 Ry     beta= 0.40
     Davidson diagonalization with overlap

---- Real-time Memory Report at c_bands before calling an iterative solver
          3303 MiB given to the printing process from OS
         -1712 MiB allocation reported by mallinfo(arena+hblkhd)
         56765 MiB available memory on the node where the printing process lives
     GPU memory used/free/total (MiB): 2482 / 13798 / 16280
------------------
     ethr =  1.98E-10,  avg # of iterations =  3.8

     total cpu time spent up to now is     1022.6 secs

     total energy              =   -1502.40689389 Ry
     estimated scf accuracy    <       0.00000127 Ry

     total magnetization       =     6.98 Bohr mag/cell
     absolute magnetization    =     7.51 Bohr mag/cell
[tb_dev] Currently allocated     6.21E+00 Mbytes, locked:    0 /  11
[tb_pin] Currently allocated     0.00E+00 Mbytes, locked:    0 /   0

     iteration # 70     ecut=    90.00 Ry     beta= 0.40
     Davidson diagonalization with overlap

---- Real-time Memory Report at c_bands before calling an iterative solver
          3306 MiB given to the printing process from OS
         -1708 MiB allocation reported by mallinfo(arena+hblkhd)
         56761 MiB available memory on the node where the printing process lives
     GPU memory used/free/total (MiB): 2482 / 13798 / 16280
------------------
     ethr =  1.98E-10,  avg # of iterations =  4.2

     total cpu time spent up to now is     1035.6 secs

     total energy              =   -1502.40689506 Ry
     estimated scf accuracy    <       0.00000122 Ry

     total magnetization       =     7.00 Bohr mag/cell
     absolute magnetization    =     7.52 Bohr mag/cell
[tb_dev] Currently allocated     6.21E+00 Mbytes, locked:    0 /  11
[tb_pin] Currently allocated     0.00E+00 Mbytes, locked:    0 /   0

     iteration # 71     ecut=    90.00 Ry     beta= 0.40
     Davidson diagonalization with overlap

---- Real-time Memory Report at c_bands before calling an iterative solver
          3312 MiB given to the printing process from OS
         -1704 MiB allocation reported by mallinfo(arena+hblkhd)
         56755 MiB available memory on the node where the printing process lives
     GPU memory used/free/total (MiB): 2482 / 13798 / 16280
------------------
     ethr =  1.98E-10,  avg # of iterations =  4.0

     total cpu time spent up to now is     1047.8 secs

     total energy              =   -1502.40689403 Ry
     estimated scf accuracy    <       0.00000104 Ry

     total magnetization       =     6.99 Bohr mag/cell
     absolute magnetization    =     7.51 Bohr mag/cell
[tb_dev] Currently allocated     6.21E+00 Mbytes, locked:    0 /  11
[tb_pin] Currently allocated     0.00E+00 Mbytes, locked:    0 /   0

     iteration # 72     ecut=    90.00 Ry     beta= 0.40
     Davidson diagonalization with overlap

---- Real-time Memory Report at c_bands before calling an iterative solver
          3314 MiB given to the printing process from OS
         -1700 MiB allocation reported by mallinfo(arena+hblkhd)
         56754 MiB available memory on the node where the printing process lives
     GPU memory used/free/total (MiB): 2482 / 13798 / 16280
------------------
     ethr =  1.98E-10,  avg # of iterations =  4.2

     negative rho (up, down):  0.000E+00 3.462E-06

     total cpu time spent up to now is     1060.7 secs

     total energy              =   -1502.40481307 Ry
     estimated scf accuracy    <       0.00000093 Ry

     total magnetization       =     7.00 Bohr mag/cell
     absolute magnetization    =     7.52 Bohr mag/cell
[tb_dev] Currently allocated     6.21E+00 Mbytes, locked:    0 /  11
[tb_pin] Currently allocated     0.00E+00 Mbytes, locked:    0 /   0

     iteration # 73     ecut=    90.00 Ry     beta= 0.40
     Davidson diagonalization with overlap

---- Real-time Memory Report at c_bands before calling an iterative solver
          3321 MiB given to the printing process from OS
         -1695 MiB allocation reported by mallinfo(arena+hblkhd)
         56722 MiB available memory on the node where the printing process lives
     GPU memory used/free/total (MiB): 2482 / 13798 / 16280
------------------
     ethr =  1.98E-10,  avg # of iterations = 12.0

     total cpu time spent up to now is     1088.7 secs

     total energy              =   -1502.40553868 Ry
     estimated scf accuracy    <       0.00013107 Ry

     total magnetization       =     7.39 Bohr mag/cell
     absolute magnetization    =     7.94 Bohr mag/cell
[tb_dev] Currently allocated     6.21E+00 Mbytes, locked:    0 /  11
[tb_pin] Currently allocated     0.00E+00 Mbytes, locked:    0 /   0

     iteration # 74     ecut=    90.00 Ry     beta= 0.40
     Davidson diagonalization with overlap

---- Real-time Memory Report at c_bands before calling an iterative solver
          3325 MiB given to the printing process from OS
         -1691 MiB allocation reported by mallinfo(arena+hblkhd)
         56733 MiB available memory on the node where the printing process lives
     GPU memory used/free/total (MiB): 2482 / 13798 / 16280
------------------
     ethr =  1.98E-10,  avg # of iterations = 11.3

     total cpu time spent up to now is     1115.2 secs

     total energy              =   -1502.40688546 Ry
     estimated scf accuracy    <       0.00000135 Ry

     total magnetization       =     7.06 Bohr mag/cell
     absolute magnetization    =     7.59 Bohr mag/cell
[tb_dev] Currently allocated     6.21E+00 Mbytes, locked:    0 /  11
[tb_pin] Currently allocated     0.00E+00 Mbytes, locked:    0 /   0

     iteration # 75     ecut=    90.00 Ry     beta= 0.40
     Davidson diagonalization with overlap

---- Real-time Memory Report at c_bands before calling an iterative solver
          3329 MiB given to the printing process from OS
         -1687 MiB allocation reported by mallinfo(arena+hblkhd)
         56731 MiB available memory on the node where the printing process lives
     GPU memory used/free/total (MiB): 2482 / 13798 / 16280
------------------
     ethr =  1.98E-10,  avg # of iterations =  4.9

     total cpu time spent up to now is     1129.5 secs

     total energy              =   -1502.40686159 Ry
     estimated scf accuracy    <       0.00000180 Ry

     total magnetization       =     7.08 Bohr mag/cell
     absolute magnetization    =     7.61 Bohr mag/cell
[tb_dev] Currently allocated     6.21E+00 Mbytes, locked:    0 /  11
[tb_pin] Currently allocated     0.00E+00 Mbytes, locked:    0 /   0

     iteration # 76     ecut=    90.00 Ry     beta= 0.40
     Davidson diagonalization with overlap

---- Real-time Memory Report at c_bands before calling an iterative solver
          3333 MiB given to the printing process from OS
         -1672 MiB allocation reported by mallinfo(arena+hblkhd)
         56719 MiB available memory on the node where the printing process lives
     GPU memory used/free/total (MiB): 2482 / 13798 / 16280
------------------
     ethr =  1.98E-10,  avg # of iterations =  6.5

     total cpu time spent up to now is     1146.6 secs

     total energy              =   -1502.40660594 Ry
     estimated scf accuracy    <       0.00000365 Ry

     total magnetization       =     7.13 Bohr mag/cell
     absolute magnetization    =     7.66 Bohr mag/cell
[tb_dev] Currently allocated     6.21E+00 Mbytes, locked:    0 /  11
[tb_pin] Currently allocated     0.00E+00 Mbytes, locked:    0 /   0

     iteration # 77     ecut=    90.00 Ry     beta= 0.40
     Davidson diagonalization with overlap

---- Real-time Memory Report at c_bands before calling an iterative solver
          3338 MiB given to the printing process from OS
         -1668 MiB allocation reported by mallinfo(arena+hblkhd)
         56717 MiB available memory on the node where the printing process lives
     GPU memory used/free/total (MiB): 2482 / 13798 / 16280
------------------
     ethr =  1.98E-10,  avg # of iterations =  9.0

     total cpu time spent up to now is     1169.0 secs

     total energy              =   -1502.40674812 Ry
     estimated scf accuracy    <       0.00000104 Ry

     total magnetization       =     6.97 Bohr mag/cell
     absolute magnetization    =     7.49 Bohr mag/cell
[tb_dev] Currently allocated     6.21E+00 Mbytes, locked:    0 /  11
[tb_pin] Currently allocated     0.00E+00 Mbytes, locked:    0 /   0

     iteration # 78     ecut=    90.00 Ry     beta= 0.40
     Davidson diagonalization with overlap

---- Real-time Memory Report at c_bands before calling an iterative solver
          3344 MiB given to the printing process from OS
         -1664 MiB allocation reported by mallinfo(arena+hblkhd)
         56712 MiB available memory on the node where the printing process lives
     GPU memory used/free/total (MiB): 2482 / 13798 / 16280
------------------
     ethr =  1.98E-10,  avg # of iterations =  8.3

     total cpu time spent up to now is     1190.0 secs

     total energy              =   -1502.40683363 Ry
     estimated scf accuracy    <       0.00000167 Ry

     total magnetization       =     7.08 Bohr mag/cell
     absolute magnetization    =     7.61 Bohr mag/cell
[tb_dev] Currently allocated     6.21E+00 Mbytes, locked:    0 /  11
[tb_pin] Currently allocated     0.00E+00 Mbytes, locked:    0 /   0

     iteration # 79     ecut=    90.00 Ry     beta= 0.40
     Davidson diagonalization with overlap

---- Real-time Memory Report at c_bands before calling an iterative solver
          3347 MiB given to the printing process from OS
         -1660 MiB allocation reported by mallinfo(arena+hblkhd)
         56708 MiB available memory on the node where the printing process lives
     GPU memory used/free/total (MiB): 2482 / 13798 / 16280
------------------
     ethr =  1.98E-10,  avg # of iterations =  7.3

     total cpu time spent up to now is     1208.7 secs

     total energy              =   -1502.40689472 Ry
     estimated scf accuracy    <       0.00000086 Ry

     total magnetization       =     7.01 Bohr mag/cell
     absolute magnetization    =     7.53 Bohr mag/cell
[tb_dev] Currently allocated     6.21E+00 Mbytes, locked:    0 /  11
[tb_pin] Currently allocated     0.00E+00 Mbytes, locked:    0 /   0

     iteration # 80     ecut=    90.00 Ry     beta= 0.40
     Davidson diagonalization with overlap

---- Real-time Memory Report at c_bands before calling an iterative solver
          3352 MiB given to the printing process from OS
         -1656 MiB allocation reported by mallinfo(arena+hblkhd)
         56708 MiB available memory on the node where the printing process lives
     GPU memory used/free/total (MiB): 2482 / 13798 / 16280
------------------
     ethr =  1.98E-10,  avg # of iterations =  2.1

     total cpu time spent up to now is     1218.0 secs

     total energy              =   -1502.40686041 Ry
     estimated scf accuracy    <       0.00000090 Ry

     total magnetization       =     7.01 Bohr mag/cell
     absolute magnetization    =     7.53 Bohr mag/cell

     End of self-consistent calculation

     convergence NOT achieved after  80 iterations: stopping

     Writing config to output data dir ./out/aiida.save/
 
     init_run     :     32.32s CPU      9.82s WALL (       1 calls)
     electrons    :   1891.68s CPU   1207.32s WALL (       1 calls)

     Called by init_run:
     wfcinit      :      4.91s CPU      6.00s WALL (       1 calls)
                                        6.00s GPU  (       1 calls)
     wfcinit:atom :      0.08s CPU      0.10s WALL (     190 calls)
                                        0.10s GPU  (     190 calls)
     wfcinit:wfcr :      2.76s CPU      3.38s WALL (     190 calls)
                                        3.38s GPU  (     190 calls)
     potinit      :     12.76s CPU      1.19s WALL (       1 calls)
     hinit0       :      8.47s CPU      1.78s WALL (       1 calls)

     Called by electrons:
     c_bands      :    999.36s CPU   1023.50s WALL (      80 calls)
     sum_band     :    101.76s CPU    111.68s WALL (      80 calls)
     v_of_rho     :     48.72s CPU      4.42s WALL (      81 calls)
     v_h          :      9.18s CPU      0.83s WALL (      81 calls)
     v_xc         :     39.54s CPU      3.59s WALL (      81 calls)
     newd         :     96.75s CPU      9.12s WALL (      81 calls)
                                        9.11s GPU  (      81 calls)
     PAW_pot      :    603.38s CPU     54.65s WALL (      81 calls)
     mix_rho      :     35.68s CPU      3.52s WALL (      80 calls)

     Called by c_bands:
     init_us_2    :     38.22s CPU     41.13s WALL (   30590 calls)
     init_us_2:gp :     37.68s CPU     40.62s WALL (   30590 calls)
     cegterg      :    907.81s CPU    939.03s WALL (   15200 calls)

     Called by sum_band:
     sum_band:wei :      0.71s CPU      0.72s WALL (      80 calls)
                                        0.72s GPU  (      80 calls)
     sum_band:loo :     86.98s CPU     96.68s WALL (      80 calls)
                                       96.68s GPU  (      80 calls)
     sum_band:buf :     26.88s CPU     28.35s WALL (   15200 calls)
                                       28.26s GPU  (   15200 calls)
     sum_band:ini :     17.37s CPU     20.14s WALL (   15200 calls)
                                       20.06s GPU  (   15200 calls)
     sum_band:cal :      0.42s CPU      3.23s WALL (   15200 calls)
                                        2.85s GPU  (   15200 calls)
     sum_band:bec :      3.36s CPU      3.75s WALL (   15200 calls)
                                        3.65s GPU  (   15200 calls)
     addusdens    :     10.48s CPU     10.67s WALL (      80 calls)
                                       10.67s GPU  (      80 calls)
     addusd:skk   :      0.02s CPU      0.03s WALL (     240 calls)
                                        0.03s GPU  (     240 calls)

     Called by *egterg:
     cdiaghg      :    399.26s CPU    440.18s WALL (   95774 calls)
                                      439.55s GPU  (   95774 calls)
     cegterg:over :     22.46s CPU     22.51s WALL (   80574 calls)
     cegterg:upda :     44.82s CPU     45.45s WALL (   80574 calls)
     cegterg:last :     20.85s CPU     20.68s WALL (   53079 calls)
     h_psi        :    365.36s CPU    358.15s WALL (   95964 calls)
                                      357.16s GPU  (   95964 calls)
     s_psi        :     11.06s CPU     23.02s WALL (   95964 calls)
                                       21.13s GPU  (   95964 calls)
     g_psi        :      0.58s CPU      3.16s WALL (   80574 calls)
                                        2.64s GPU  (   80574 calls)

     Called by h_psi:
     h_psi:calbec :      3.06s CPU     17.33s WALL (   95964 calls)
                                       16.71s GPU  (   95964 calls)
     vloc_psi     :    312.53s CPU    308.49s WALL (   95964 calls)
                                      307.88s GPU  (   95964 calls)
     add_vuspsi   :     15.28s CPU     24.68s WALL (   95964 calls)
                                       24.06s GPU  (   95964 calls)

     General routines
     calbec       :      2.47s CPU      2.48s WALL (  111164 calls)
     fft          :      2.54s CPU      0.62s WALL (    2023 calls)
                                        0.49s GPU  (    1861 calls)
     ffts         :      0.04s CPU      0.03s WALL (     322 calls)
                                        0.01s GPU  (     160 calls)
     fftw         :     10.57s CPU    220.65s WALL (  538450 calls)
                                      217.71s GPU  (  538450 calls)
     interpolate  :      4.82s CPU      0.43s WALL (     162 calls)
     davcio       :      0.25s CPU      0.74s WALL (     208 calls)
 
     Parallel routines

     PAW routines
     PAW_pot      :    603.38s CPU     54.65s WALL (      81 calls)
     PAW_symme    :      0.75s CPU      0.12s WALL (     161 calls)
 
     PWSCF        :  32m 7.13s CPU  20m19.04s WALL

 
   This run was terminated on:  23:49:41  22Oct2023            

=------------------------------------------------------------------------------=
   JOB DONE.
=------------------------------------------------------------------------------=
