
     Program PWSCF v.7.2 starts on 22Oct2023 at 23:39:26 

     This program is part of the open-source Quantum ESPRESSO suite
     for quantum simulation of materials; please cite
         "P. Giannozzi et al., J. Phys.:Condens. Matter 21 395502 (2009);
         "P. Giannozzi et al., J. Phys.:Condens. Matter 29 465901 (2017);
         "P. Giannozzi et al., J. Chem. Phys. 152 154105 (2020);
          URL http://www.quantum-espresso.org", 
     in publications or presentations arising from this work. More details at
     http://www.quantum-espresso.org/quote

     Parallel version (MPI & OpenMP), running on      12 processor cores
     Number of MPI processes:                 1
     Threads/MPI process:                    12

     MPI processes distributed on     1 nodes
     60405 MiB available memory on the printing compute node when the environment starts
 
     Reading input from aiida.in

     Current dimensions of program PWSCF are:
     Max number of different atomic species (ntypx) = 10
     Max number of k-points (npk) =  40000
     Max angular momentum in pseudopotentials (lmaxx) =  4
     file Fe.pbesol-spn-kjpaw_psl.0.2.1.UPF: wavefunction(s)  3D renormalized
     file O.pbesol-n-kjpaw_psl.0.1.UPF: wavefunction(s)  2P renormalized
     Message from routine setup:
     using ibrav=0 with symmetry is DISCOURAGED, use correct ibrav instead
 
     Subspace diagonalization in iterative solution of the eigenvalue problem:
     a serial algorithm will be used

 
     G-vector sticks info
     --------------------
     sticks:   dense  smooth     PW     G-vecs:    dense   smooth      PW
     Sum        9295    3091    847               590195   113443   16529
 
     Using Slab Decomposition
 


     bravais-lattice index     =            0
     lattice parameter (alat)  =      11.1669  a.u.
     unit-cell volume          =     984.6634 (a.u.)^3
     number of atoms/cell      =           14
     number of atomic types    =            3
     number of electrons       =       148.00
     number of Kohn-Sham states=           89
     kinetic-energy cutoff     =      90.0000  Ry
     charge density cutoff     =    1080.0000  Ry
     scf convergence threshold =      2.8E-09
     mixing beta               =       0.4000
     number of iterations used =            8  plain     mixing
     Exchange-correlation= SLA  PW   PSX  PSC
                           (   1   4  10   8   0   0   0)

     GPU acceleration is ACTIVE.


     GPU used by master process:

        Device Number: 0
        Device name: Tesla P100-PCIE-16GB
        Compute capability : 60
        Ratio of single to double precision performance  : 2
        Memory Clock Rate (KHz): 715000
        Memory Bus Width (bits): 4096
        Peak Memory Bandwidth (GB/s): 732.16

     celldm(1)=  11.166942  celldm(2)=   0.000000  celldm(3)=   0.000000
     celldm(4)=   0.000000  celldm(5)=   0.000000  celldm(6)=   0.000000

     crystal axes: (cart. coord. in units of alat)
               a(1) = (   0.000000   0.707107   0.707107 )  
               a(2) = (   0.707107   0.000000   0.707107 )  
               a(3) = (   0.707107   0.707107   0.000000 )  

     reciprocal axes: (cart. coord. in units 2 pi/alat)
               b(1) = ( -0.707107  0.707107  0.707107 )  
               b(2) = (  0.707107 -0.707107  0.707107 )  
               b(3) = (  0.707107  0.707107 -0.707107 )  


     PseudoPot. # 1 for Fe read from file:
     ./pseudo/Fe.pbesol-spn-kjpaw_psl.0.2.1.UPF
     MD5 check sum: 4d7ec5aa2156491519a4322664fbbf52
     Pseudo is Projector augmented-wave + core cor, Zval = 16.0
     Generated using "atomic" code by A. Dal Corso  v.6.0 svn rev. 13079
     Shape of augmentation charge: PSQ
     Using radial grid of 1191 points,  6 beta functions with: 
                l(1) =   0
                l(2) =   0
                l(3) =   1
                l(4) =   1
                l(5) =   2
                l(6) =   2
     Q(r) pseudized with 0 coefficients 


     PseudoPot. # 2 for Ni read from file:
     ./pseudo/ni_pbesol_v1.4.uspp.F.UPF
     MD5 check sum: de937c0c8ae4b350e69c02b76d8a83cb
     Pseudo is Ultrasoft + core correction, Zval = 18.0
     Generated by new atomic code, or converted to UPF format
     Using radial grid of  865 points,  6 beta functions with: 
                l(1) =   0
                l(2) =   0
                l(3) =   1
                l(4) =   1
                l(5) =   2
                l(6) =   2
     Q(r) pseudized with 10 coefficients,  rinner =    0.980   0.980   0.980
                                                       0.980   0.980

     PseudoPot. # 3 for O  read from file:
     ./pseudo/O.pbesol-n-kjpaw_psl.0.1.UPF
     MD5 check sum: 81d73d1479e654e5638b0319f0d6c2c7
     Pseudo is Projector augmented-wave + core cor, Zval =  6.0
     Generated using "atomic" code by A. Dal Corso  v.6.0 svn rev. 13079
     Shape of augmentation charge: BESSEL
     Using radial grid of 1095 points,  4 beta functions with: 
                l(1) =   0
                l(2) =   0
                l(3) =   1
                l(4) =   1
     Q(r) pseudized with 0 coefficients 


     atomic species   valence    mass     pseudopotential
        Fe            16.00    55.84500     Fe( 1.00)
        Ni            18.00    58.69340     Ni( 1.00)
        O              6.00    15.99940     O ( 1.00)

     Starting magnetic structure 
     atomic species   magnetization
        Fe           0.313
        Ni           0.278
        O            0.100

     48 Sym. Ops., with inversion, found (24 have fractional translation)


                                    s                        frac. trans.

      isym =  1     identity                                     

 cryst.   s( 1) = (     1          0          0      )
                  (     0          1          0      )
                  (     0          0          1      )

 cart.    s( 1) = (  1.0000000 -0.0000000  0.0000000 )
                  ( -0.0000000  1.0000000  0.0000000 )
                  ( -0.0000000  0.0000000  1.0000000 )


      isym =  2     180 deg rotation - cart. axis [0,0,1]        

 cryst.   s( 2) = (     0          1         -1      )
                  (     1          0         -1      )
                  (     0          0         -1      )

 cart.    s( 2) = ( -1.0000000  0.0000000  0.0000000 )
                  (  0.0000000 -1.0000000  0.0000000 )
                  (  0.0000000 -0.0000000  1.0000000 )


      isym =  3     180 deg rotation - cart. axis [0,1,0]        

 cryst.   s( 3) = (     0         -1          1      )
                  (     0         -1          0      )
                  (     1         -1          0      )

 cart.    s( 3) = ( -1.0000000 -0.0000000 -0.0000000 )
                  (  0.0000000  1.0000000 -0.0000000 )
                  (  0.0000000  0.0000000 -1.0000000 )


      isym =  4     180 deg rotation - cart. axis [1,0,0]        

 cryst.   s( 4) = (    -1          0          0      )
                  (    -1          0          1      )
                  (    -1          1          0      )

 cart.    s( 4) = (  1.0000000  0.0000000 -0.0000000 )
                  ( -0.0000000 -1.0000000 -0.0000000 )
                  ( -0.0000000 -0.0000000 -1.0000000 )


      isym =  5     180 deg rotation - cart. axis [1,1,0]        

 cryst.   s( 5) = (    -1          0          1      )    f =( -0.2500000 )
                  (     0         -1          1      )       ( -0.2500000 )
                  (     0          0          1      )       ( -0.2500000 )

 cart.    s( 5) = ( -0.0000000  1.0000000 -0.0000000 )    f =( -0.3535534 )
                  (  1.0000000 -0.0000000 -0.0000000 )       ( -0.3535534 )
                  (  0.0000000 -0.0000000 -1.0000000 )       ( -0.3535534 )


      isym =  6     180 deg rotation - cart. axis [1,-1,0]       

 cryst.   s( 6) = (     0         -1          0      )    f =( -0.2500000 )
                  (    -1          0          0      )       ( -0.2500000 )
                  (     0          0         -1      )       ( -0.2500000 )

 cart.    s( 6) = (  0.0000000 -1.0000000 -0.0000000 )    f =( -0.3535534 )
                  ( -1.0000000  0.0000000 -0.0000000 )       ( -0.3535534 )
                  ( -0.0000000  0.0000000 -1.0000000 )       ( -0.3535534 )


      isym =  7      90 deg rotation - cart. axis [0,0,-1]       

 cryst.   s( 7) = (     0          1          0      )    f =( -0.2500000 )
                  (     0          1         -1      )       ( -0.2500000 )
                  (    -1          1          0      )       ( -0.2500000 )

 cart.    s( 7) = (  0.0000000  1.0000000  0.0000000 )    f =( -0.3535534 )
                  ( -1.0000000 -0.0000000  0.0000000 )       ( -0.3535534 )
                  ( -0.0000000 -0.0000000  1.0000000 )       ( -0.3535534 )


      isym =  8      90 deg rotation - cart. axis [0,0,1]        

 cryst.   s( 8) = (     1          0         -1      )    f =( -0.2500000 )
                  (     1          0          0      )       ( -0.2500000 )
                  (     1         -1          0      )       ( -0.2500000 )

 cart.    s( 8) = ( -0.0000000 -1.0000000  0.0000000 )    f =( -0.3535534 )
                  (  1.0000000  0.0000000  0.0000000 )       ( -0.3535534 )
                  (  0.0000000  0.0000000  1.0000000 )       ( -0.3535534 )


      isym =  9     180 deg rotation - cart. axis [1,0,1]        

 cryst.   s( 9) = (    -1          1          0      )    f =( -0.2500000 )
                  (     0          1          0      )       ( -0.2500000 )
                  (     0          1         -1      )       ( -0.2500000 )

 cart.    s( 9) = (  0.0000000  0.0000000  1.0000000 )    f =( -0.3535534 )
                  (  0.0000000 -1.0000000 -0.0000000 )       ( -0.3535534 )
                  (  1.0000000 -0.0000000 -0.0000000 )       ( -0.3535534 )


      isym = 10     180 deg rotation - cart. axis [-1,0,1]       

 cryst.   s(10) = (     0          0         -1      )    f =( -0.2500000 )
                  (     0         -1          0      )       ( -0.2500000 )
                  (    -1          0          0      )       ( -0.2500000 )

 cart.    s(10) = ( -0.0000000  0.0000000 -1.0000000 )    f =( -0.3535534 )
                  ( -0.0000000 -1.0000000  0.0000000 )       ( -0.3535534 )
                  ( -1.0000000 -0.0000000  0.0000000 )       ( -0.3535534 )


      isym = 11      90 deg rotation - cart. axis [0,1,0]        

 cryst.   s(11) = (     0          0          1      )    f =( -0.2500000 )
                  (    -1          0          1      )       ( -0.2500000 )
                  (     0         -1          1      )       ( -0.2500000 )

 cart.    s(11) = ( -0.0000000 -0.0000000  1.0000000 )    f =( -0.3535534 )
                  ( -0.0000000  1.0000000 -0.0000000 )       ( -0.3535534 )
                  ( -1.0000000  0.0000000 -0.0000000 )       ( -0.3535534 )


      isym = 12      90 deg rotation - cart. axis [0,-1,0]       

 cryst.   s(12) = (     1         -1          0      )    f =( -0.2500000 )
                  (     1          0         -1      )       ( -0.2500000 )
                  (     1          0          0      )       ( -0.2500000 )

 cart.    s(12) = (  0.0000000 -0.0000000 -1.0000000 )    f =( -0.3535534 )
                  (  0.0000000  1.0000000  0.0000000 )       ( -0.3535534 )
                  (  1.0000000  0.0000000  0.0000000 )       ( -0.3535534 )


      isym = 13     180 deg rotation - cart. axis [0,1,1]        

 cryst.   s(13) = (     1          0          0      )    f =( -0.2500000 )
                  (     1         -1          0      )       ( -0.2500000 )
                  (     1          0         -1      )       ( -0.2500000 )

 cart.    s(13) = ( -1.0000000  0.0000000 -0.0000000 )    f =( -0.3535534 )
                  (  0.0000000  0.0000000  1.0000000 )       ( -0.3535534 )
                  (  0.0000000  1.0000000  0.0000000 )       ( -0.3535534 )


      isym = 14     180 deg rotation - cart. axis [0,1,-1]       

 cryst.   s(14) = (    -1          0          0      )    f =( -0.2500000 )
                  (     0          0         -1      )       ( -0.2500000 )
                  (     0         -1          0      )       ( -0.2500000 )

 cart.    s(14) = ( -1.0000000 -0.0000000  0.0000000 )    f =( -0.3535534 )
                  (  0.0000000 -0.0000000 -1.0000000 )       ( -0.3535534 )
                  (  0.0000000 -1.0000000 -0.0000000 )       ( -0.3535534 )


      isym = 15      90 deg rotation - cart. axis [-1,0,0]       

 cryst.   s(15) = (     0         -1          1      )    f =( -0.2500000 )
                  (     0          0          1      )       ( -0.2500000 )
                  (    -1          0          1      )       ( -0.2500000 )

 cart.    s(15) = (  1.0000000 -0.0000000 -0.0000000 )    f =( -0.3535534 )
                  ( -0.0000000 -0.0000000  1.0000000 )       ( -0.3535534 )
                  ( -0.0000000 -1.0000000  0.0000000 )       ( -0.3535534 )


      isym = 16      90 deg rotation - cart. axis [1,0,0]        

 cryst.   s(16) = (     0          1         -1      )    f =( -0.2500000 )
                  (    -1          1          0      )       ( -0.2500000 )
                  (     0          1          0      )       ( -0.2500000 )

 cart.    s(16) = (  1.0000000  0.0000000  0.0000000 )    f =( -0.3535534 )
                  ( -0.0000000  0.0000000 -1.0000000 )       ( -0.3535534 )
                  ( -0.0000000  1.0000000 -0.0000000 )       ( -0.3535534 )


      isym = 17     120 deg rotation - cart. axis [-1,-1,-1]     

 cryst.   s(17) = (     0          0          1      )
                  (     1          0          0      )
                  (     0          1          0      )

 cart.    s(17) = (  0.0000000  1.0000000 -0.0000000 )
                  (  0.0000000 -0.0000000  1.0000000 )
                  (  1.0000000 -0.0000000  0.0000000 )


      isym = 18     120 deg rotation - cart. axis [-1,1,1]       

 cryst.   s(18) = (     1         -1          0      )
                  (     0         -1          1      )
                  (     0         -1          0      )

 cart.    s(18) = ( -0.0000000 -1.0000000 -0.0000000 )
                  ( -0.0000000  0.0000000  1.0000000 )
                  ( -1.0000000  0.0000000  0.0000000 )


      isym = 19     120 deg rotation - cart. axis [1,1,-1]       

 cryst.   s(19) = (    -1          1          0      )
                  (    -1          0          0      )
                  (    -1          0          1      )

 cart.    s(19) = ( -0.0000000  1.0000000  0.0000000 )
                  ( -0.0000000 -0.0000000 -1.0000000 )
                  ( -1.0000000 -0.0000000 -0.0000000 )


      isym = 20     120 deg rotation - cart. axis [1,-1,1]       

 cryst.   s(20) = (     0          0         -1      )
                  (     0          1         -1      )
                  (     1          0         -1      )

 cart.    s(20) = (  0.0000000 -1.0000000  0.0000000 )
                  (  0.0000000  0.0000000 -1.0000000 )
                  (  1.0000000  0.0000000 -0.0000000 )


      isym = 21     120 deg rotation - cart. axis [1,1,1]        

 cryst.   s(21) = (     0          1          0      )
                  (     0          0          1      )
                  (     1          0          0      )

 cart.    s(21) = ( -0.0000000  0.0000000  1.0000000 )
                  (  1.0000000  0.0000000 -0.0000000 )
                  (  0.0000000  1.0000000 -0.0000000 )


      isym = 22     120 deg rotation - cart. axis [-1,1,-1]      

 cryst.   s(22) = (    -1          0          1      )
                  (    -1          1          0      )
                  (    -1          0          0      )

 cart.    s(22) = (  0.0000000 -0.0000000  1.0000000 )
                  ( -1.0000000 -0.0000000 -0.0000000 )
                  ( -0.0000000 -1.0000000 -0.0000000 )


      isym = 23     120 deg rotation - cart. axis [1,-1,-1]      

 cryst.   s(23) = (     1          0         -1      )
                  (     0          0         -1      )
                  (     0          1         -1      )

 cart.    s(23) = (  0.0000000  0.0000000 -1.0000000 )
                  ( -1.0000000  0.0000000  0.0000000 )
                  ( -0.0000000  1.0000000  0.0000000 )


      isym = 24     120 deg rotation - cart. axis [-1,-1,1]      

 cryst.   s(24) = (     0         -1          0      )
                  (     1         -1          0      )
                  (     0         -1          1      )

 cart.    s(24) = ( -0.0000000 -0.0000000 -1.0000000 )
                  (  1.0000000 -0.0000000  0.0000000 )
                  (  0.0000000 -1.0000000  0.0000000 )


      isym = 25     inversion                                    

 cryst.   s(25) = (    -1          0          0      )    f =( -0.2500000 )
                  (     0         -1          0      )       ( -0.2500000 )
                  (     0          0         -1      )       ( -0.2500000 )

 cart.    s(25) = ( -1.0000000  0.0000000 -0.0000000 )    f =( -0.3535534 )
                  (  0.0000000 -1.0000000 -0.0000000 )       ( -0.3535534 )
                  (  0.0000000 -0.0000000 -1.0000000 )       ( -0.3535534 )


      isym = 26     inv. 180 deg rotation - cart. axis [0,0,1]   

 cryst.   s(26) = (     0         -1          1      )    f =( -0.2500000 )
                  (    -1          0          1      )       ( -0.2500000 )
                  (     0          0          1      )       ( -0.2500000 )

 cart.    s(26) = (  1.0000000 -0.0000000 -0.0000000 )    f =( -0.3535534 )
                  ( -0.0000000  1.0000000 -0.0000000 )       ( -0.3535534 )
                  ( -0.0000000  0.0000000 -1.0000000 )       ( -0.3535534 )


      isym = 27     inv. 180 deg rotation - cart. axis [0,1,0]   

 cryst.   s(27) = (     0          1         -1      )    f =( -0.2500000 )
                  (     0          1          0      )       ( -0.2500000 )
                  (    -1          1          0      )       ( -0.2500000 )

 cart.    s(27) = (  1.0000000  0.0000000  0.0000000 )    f =( -0.3535534 )
                  ( -0.0000000 -1.0000000  0.0000000 )       ( -0.3535534 )
                  ( -0.0000000 -0.0000000  1.0000000 )       ( -0.3535534 )


      isym = 28     inv. 180 deg rotation - cart. axis [1,0,0]   

 cryst.   s(28) = (     1          0          0      )    f =( -0.2500000 )
                  (     1          0         -1      )       ( -0.2500000 )
                  (     1         -1          0      )       ( -0.2500000 )

 cart.    s(28) = ( -1.0000000 -0.0000000  0.0000000 )    f =( -0.3535534 )
                  (  0.0000000  1.0000000  0.0000000 )       ( -0.3535534 )
                  (  0.0000000  0.0000000  1.0000000 )       ( -0.3535534 )


      isym = 29     inv. 180 deg rotation - cart. axis [1,1,0]   

 cryst.   s(29) = (     1          0         -1      )
                  (     0          1         -1      )
                  (     0          0         -1      )

 cart.    s(29) = (  0.0000000 -1.0000000  0.0000000 )
                  ( -1.0000000  0.0000000  0.0000000 )
                  ( -0.0000000  0.0000000  1.0000000 )


      isym = 30     inv. 180 deg rotation - cart. axis [1,-1,0]  

 cryst.   s(30) = (     0          1          0      )
                  (     1          0          0      )
                  (     0          0          1      )

 cart.    s(30) = ( -0.0000000  1.0000000  0.0000000 )
                  (  1.0000000 -0.0000000  0.0000000 )
                  (  0.0000000 -0.0000000  1.0000000 )


      isym = 31     inv.  90 deg rotation - cart. axis [0,0,-1]  

 cryst.   s(31) = (     0         -1          0      )
                  (     0         -1          1      )
                  (     1         -1          0      )

 cart.    s(31) = ( -0.0000000 -1.0000000 -0.0000000 )
                  (  1.0000000  0.0000000 -0.0000000 )
                  (  0.0000000  0.0000000 -1.0000000 )


      isym = 32     inv.  90 deg rotation - cart. axis [0,0,1]   

 cryst.   s(32) = (    -1          0          1      )
                  (    -1          0          0      )
                  (    -1          1          0      )

 cart.    s(32) = (  0.0000000  1.0000000 -0.0000000 )
                  ( -1.0000000 -0.0000000 -0.0000000 )
                  ( -0.0000000 -0.0000000 -1.0000000 )


      isym = 33     inv. 180 deg rotation - cart. axis [1,0,1]   

 cryst.   s(33) = (     1         -1          0      )
                  (     0         -1          0      )
                  (     0         -1          1      )

 cart.    s(33) = ( -0.0000000 -0.0000000 -1.0000000 )
                  ( -0.0000000  1.0000000  0.0000000 )
                  ( -1.0000000  0.0000000  0.0000000 )


      isym = 34     inv. 180 deg rotation - cart. axis [-1,0,1]  

 cryst.   s(34) = (     0          0          1      )
                  (     0          1          0      )
                  (     1          0          0      )

 cart.    s(34) = (  0.0000000 -0.0000000  1.0000000 )
                  (  0.0000000  1.0000000 -0.0000000 )
                  (  1.0000000  0.0000000 -0.0000000 )


      isym = 35     inv.  90 deg rotation - cart. axis [0,1,0]   

 cryst.   s(35) = (     0          0         -1      )
                  (     1          0         -1      )
                  (     0          1         -1      )

 cart.    s(35) = (  0.0000000  0.0000000 -1.0000000 )
                  (  0.0000000 -1.0000000  0.0000000 )
                  (  1.0000000 -0.0000000  0.0000000 )


      isym = 36     inv.  90 deg rotation - cart. axis [0,-1,0]  

 cryst.   s(36) = (    -1          1          0      )
                  (    -1          0          1      )
                  (    -1          0          0      )

 cart.    s(36) = ( -0.0000000  0.0000000  1.0000000 )
                  ( -0.0000000 -1.0000000 -0.0000000 )
                  ( -1.0000000 -0.0000000 -0.0000000 )


      isym = 37     inv. 180 deg rotation - cart. axis [0,1,1]   

 cryst.   s(37) = (    -1          0          0      )
                  (    -1          1          0      )
                  (    -1          0          1      )

 cart.    s(37) = (  1.0000000 -0.0000000  0.0000000 )
                  ( -0.0000000 -0.0000000 -1.0000000 )
                  ( -0.0000000 -1.0000000 -0.0000000 )


      isym = 38     inv. 180 deg rotation - cart. axis [0,1,-1]  

 cryst.   s(38) = (     1          0          0      )
                  (     0          0          1      )
                  (     0          1          0      )

 cart.    s(38) = (  1.0000000  0.0000000 -0.0000000 )
                  ( -0.0000000  0.0000000  1.0000000 )
                  ( -0.0000000  1.0000000  0.0000000 )


      isym = 39     inv.  90 deg rotation - cart. axis [-1,0,0]  

 cryst.   s(39) = (     0          1         -1      )
                  (     0          0         -1      )
                  (     1          0         -1      )

 cart.    s(39) = ( -1.0000000  0.0000000  0.0000000 )
                  (  0.0000000  0.0000000 -1.0000000 )
                  (  0.0000000  1.0000000 -0.0000000 )


      isym = 40     inv.  90 deg rotation - cart. axis [1,0,0]   

 cryst.   s(40) = (     0         -1          1      )
                  (     1         -1          0      )
                  (     0         -1          0      )

 cart.    s(40) = ( -1.0000000 -0.0000000 -0.0000000 )
                  (  0.0000000 -0.0000000  1.0000000 )
                  (  0.0000000 -1.0000000  0.0000000 )


      isym = 41     inv. 120 deg rotation - cart. axis [-1,-1,-1]

 cryst.   s(41) = (     0          0         -1      )    f =( -0.2500000 )
                  (    -1          0          0      )       ( -0.2500000 )
                  (     0         -1          0      )       ( -0.2500000 )

 cart.    s(41) = ( -0.0000000 -1.0000000  0.0000000 )    f =( -0.3535534 )
                  ( -0.0000000  0.0000000 -1.0000000 )       ( -0.3535534 )
                  ( -1.0000000  0.0000000 -0.0000000 )       ( -0.3535534 )


      isym = 42     inv. 120 deg rotation - cart. axis [-1,1,1]  

 cryst.   s(42) = (    -1          1          0      )    f =( -0.2500000 )
                  (     0          1         -1      )       ( -0.2500000 )
                  (     0          1          0      )       ( -0.2500000 )

 cart.    s(42) = (  0.0000000  1.0000000  0.0000000 )    f =( -0.3535534 )
                  (  0.0000000 -0.0000000 -1.0000000 )       ( -0.3535534 )
                  (  1.0000000 -0.0000000 -0.0000000 )       ( -0.3535534 )


      isym = 43     inv. 120 deg rotation - cart. axis [1,1,-1]  

 cryst.   s(43) = (     1         -1          0      )    f =( -0.2500000 )
                  (     1          0          0      )       ( -0.2500000 )
                  (     1          0         -1      )       ( -0.2500000 )

 cart.    s(43) = (  0.0000000 -1.0000000 -0.0000000 )    f =( -0.3535534 )
                  (  0.0000000  0.0000000  1.0000000 )       ( -0.3535534 )
                  (  1.0000000  0.0000000  0.0000000 )       ( -0.3535534 )


      isym = 44     inv. 120 deg rotation - cart. axis [1,-1,1]  

 cryst.   s(44) = (     0          0          1      )    f =( -0.2500000 )
                  (     0         -1          1      )       ( -0.2500000 )
                  (    -1          0          1      )       ( -0.2500000 )

 cart.    s(44) = ( -0.0000000  1.0000000 -0.0000000 )    f =( -0.3535534 )
                  ( -0.0000000 -0.0000000  1.0000000 )       ( -0.3535534 )
                  ( -1.0000000 -0.0000000  0.0000000 )       ( -0.3535534 )


      isym = 45     inv. 120 deg rotation - cart. axis [1,1,1]   

 cryst.   s(45) = (     0         -1          0      )    f =( -0.2500000 )
                  (     0          0         -1      )       ( -0.2500000 )
                  (    -1          0          0      )       ( -0.2500000 )

 cart.    s(45) = (  0.0000000 -0.0000000 -1.0000000 )    f =( -0.3535534 )
                  ( -1.0000000 -0.0000000  0.0000000 )       ( -0.3535534 )
                  ( -0.0000000 -1.0000000  0.0000000 )       ( -0.3535534 )


      isym = 46     inv. 120 deg rotation - cart. axis [-1,1,-1] 

 cryst.   s(46) = (     1          0         -1      )    f =( -0.2500000 )
                  (     1         -1          0      )       ( -0.2500000 )
                  (     1          0          0      )       ( -0.2500000 )

 cart.    s(46) = ( -0.0000000  0.0000000 -1.0000000 )    f =( -0.3535534 )
                  (  1.0000000  0.0000000  0.0000000 )       ( -0.3535534 )
                  (  0.0000000  1.0000000  0.0000000 )       ( -0.3535534 )


      isym = 47     inv. 120 deg rotation - cart. axis [1,-1,-1] 

 cryst.   s(47) = (    -1          0          1      )    f =( -0.2500000 )
                  (     0          0          1      )       ( -0.2500000 )
                  (     0         -1          1      )       ( -0.2500000 )

 cart.    s(47) = ( -0.0000000 -0.0000000  1.0000000 )    f =( -0.3535534 )
                  (  1.0000000 -0.0000000 -0.0000000 )       ( -0.3535534 )
                  (  0.0000000 -1.0000000 -0.0000000 )       ( -0.3535534 )


      isym = 48     inv. 120 deg rotation - cart. axis [-1,-1,1] 

 cryst.   s(48) = (     0          1          0      )    f =( -0.2500000 )
                  (    -1          1          0      )       ( -0.2500000 )
                  (     0          1         -1      )       ( -0.2500000 )

 cart.    s(48) = (  0.0000000  0.0000000  1.0000000 )    f =( -0.3535534 )
                  ( -1.0000000  0.0000000 -0.0000000 )       ( -0.3535534 )
                  ( -0.0000000  1.0000000 -0.0000000 )       ( -0.3535534 )


   Cartesian axes

     site n.     atom                  positions (alat units)
         1           Fe  tau(   1) = (   1.2374369   1.2374369   0.1767767  )
         2           Fe  tau(   2) = (   0.5303301   0.1767767   0.5303301  )
         3           Fe  tau(   3) = (   0.8838835   1.2374369   0.5303301  )
         4           Fe  tau(   4) = (   0.1767767   0.1767767   0.1767767  )
         5           Ni  tau(   5) = (   0.3535534   1.0606602   0.3535534  )
         6           Ni  tau(   6) = (   0.0000000   0.0000000   0.7071068  )
         7           O   tau(   7) = (   0.1767767   0.1767767   0.5303301  )
         8           O   tau(   8) = (   0.1767767   0.5303301   0.1767767  )
         9           O   tau(   9) = (   0.5303301   0.1767767   0.1767767  )
        10           O   tau(  10) = (   0.5303301   0.5303301   0.5303301  )
        11           O   tau(  11) = (   0.8838835   0.1767767   0.5303301  )
        12           O   tau(  12) = (   0.1767767   1.2374369   0.1767767  )
        13           O   tau(  13) = (   1.2374369   0.1767767   0.1767767  )
        14           O   tau(  14) = (   0.5303301   1.2374369   0.5303301  )

   Crystallographic axes

     site n.     atom                  positions (cryst. coord.)
         1           Fe  tau(   1) = (  0.1250000  0.1250000  1.6250000  )
         2           Fe  tau(   2) = (  0.1250000  0.6250000  0.1250000  )
         3           Fe  tau(   3) = (  0.6250000  0.1250000  1.1250000  )
         4           Fe  tau(   4) = (  0.1250000  0.1250000  0.1250000  )
         5           Ni  tau(   5) = (  0.7500000 -0.2500000  0.7500000  )
         6           Ni  tau(   6) = (  0.5000000  0.5000000 -0.5000000  )
         7           O   tau(   7) = (  0.3750000  0.3750000 -0.1250000  )
         8           O   tau(   8) = (  0.3750000 -0.1250000  0.3750000  )
         9           O   tau(   9) = ( -0.1250000  0.3750000  0.3750000  )
        10           O   tau(  10) = (  0.3750000  0.3750000  0.3750000  )
        11           O   tau(  11) = ( -0.1250000  0.8750000  0.3750000  )
        12           O   tau(  12) = (  0.8750000 -0.6250000  0.8750000  )
        13           O   tau(  13) = ( -0.6250000  0.8750000  0.8750000  )
        14           O   tau(  14) = (  0.8750000 -0.1250000  0.8750000  )

     number of k points=    35  Marzari-Vanderbilt smearing, width (Ry)=  0.0100
                       cart. coord. in units 2pi/alat
        k(    1) = (   0.0000000   0.0000000   0.0000000), wk =   0.0013717
        k(    2) = (   0.0785674   0.0785674  -0.0785674), wk =   0.0109739
        k(    3) = (   0.1571348   0.1571348  -0.1571348), wk =   0.0109739
        k(    4) = (   0.2357023   0.2357023  -0.2357023), wk =   0.0109739
        k(    5) = (   0.3142697   0.3142697  -0.3142697), wk =   0.0109739
        k(    6) = (   0.1571348   0.0000000  -0.0000000), wk =   0.0082305
        k(    7) = (   0.2357023   0.0785674  -0.0785674), wk =   0.0329218
        k(    8) = (   0.3142697   0.1571348  -0.1571348), wk =   0.0329218
        k(    9) = (   0.3928371   0.2357023  -0.2357023), wk =   0.0329218
        k(   10) = (  -0.2357023  -0.3928371   0.3928371), wk =   0.0329218
        k(   11) = (  -0.1571348  -0.3142697   0.3142697), wk =   0.0329218
        k(   12) = (  -0.0785674  -0.2357023   0.2357023), wk =   0.0329218
        k(   13) = (  -0.0000000  -0.1571348   0.1571348), wk =   0.0164609
        k(   14) = (   0.3142697   0.0000000  -0.0000000), wk =   0.0082305
        k(   15) = (   0.3928371   0.0785674  -0.0785674), wk =   0.0329218
        k(   16) = (   0.4714045   0.1571348  -0.1571348), wk =   0.0329218
        k(   17) = (  -0.1571348  -0.4714045   0.4714045), wk =   0.0329218
        k(   18) = (  -0.0785674  -0.3928371   0.3928371), wk =   0.0329218
        k(   19) = (  -0.0000000  -0.3142697   0.3142697), wk =   0.0164609
        k(   20) = (   0.4714045   0.0000000  -0.0000000), wk =   0.0082305
        k(   21) = (   0.5499719   0.0785674  -0.0785674), wk =   0.0329218
        k(   22) = (  -0.0785674  -0.5499719   0.5499719), wk =   0.0329218
        k(   23) = (  -0.0000000  -0.4714045   0.4714045), wk =   0.0164609
        k(   24) = (   0.6285394   0.0000000  -0.0000000), wk =   0.0082305
        k(   25) = (  -0.0000000  -0.6285394   0.6285394), wk =   0.0164609
        k(   26) = (   0.3142697   0.1571348  -0.0000000), wk =   0.0329218
        k(   27) = (   0.3928371   0.2357023  -0.0785674), wk =   0.0658436
        k(   28) = (  -0.2357023  -0.3928371   0.5499719), wk =   0.0658436
        k(   29) = (   0.4714045   0.1571348  -0.0000000), wk =   0.0329218
        k(   30) = (  -0.1571348  -0.4714045   0.6285394), wk =   0.0658436
        k(   31) = (  -0.0785674  -0.3928371   0.5499719), wk =   0.0658436
        k(   32) = (   0.0000000  -0.3142697   0.4714045), wk =   0.0329218
        k(   33) = (  -0.0785674  -0.5499719   0.7071068), wk =   0.0329218
        k(   34) = (  -0.0000000  -0.4714045   0.6285394), wk =   0.0329218
        k(   35) = (  -0.0785674  -0.3928371   0.7071068), wk =   0.0329218

                       cryst. coord.
        k(    1) = (   0.0000000   0.0000000   0.0000000), wk =   0.0013717
        k(    2) = (  -0.0000000  -0.0000000   0.1111111), wk =   0.0109739
        k(    3) = (  -0.0000000  -0.0000000   0.2222222), wk =   0.0109739
        k(    4) = (   0.0000000   0.0000000   0.3333333), wk =   0.0109739
        k(    5) = (  -0.0000000  -0.0000000   0.4444444), wk =   0.0109739
        k(    6) = (  -0.0000000   0.1111111   0.1111111), wk =   0.0082305
        k(    7) = (   0.0000000   0.1111111   0.2222222), wk =   0.0329218
        k(    8) = (   0.0000000   0.1111111   0.3333333), wk =   0.0329218
        k(    9) = (   0.0000000   0.1111111   0.4444444), wk =   0.0329218
        k(   10) = (  -0.0000000   0.1111111  -0.4444444), wk =   0.0329218
        k(   11) = (  -0.0000000   0.1111111  -0.3333333), wk =   0.0329218
        k(   12) = (  -0.0000000   0.1111111  -0.2222222), wk =   0.0329218
        k(   13) = (   0.0000000   0.1111111  -0.1111111), wk =   0.0164609
        k(   14) = (  -0.0000000   0.2222222   0.2222222), wk =   0.0082305
        k(   15) = (   0.0000000   0.2222222   0.3333333), wk =   0.0329218
        k(   16) = (   0.0000000   0.2222222   0.4444444), wk =   0.0329218
        k(   17) = (  -0.0000000   0.2222222  -0.4444444), wk =   0.0329218
        k(   18) = (  -0.0000000   0.2222222  -0.3333333), wk =   0.0329218
        k(   19) = (   0.0000000   0.2222222  -0.2222222), wk =   0.0164609
        k(   20) = (  -0.0000000   0.3333333   0.3333333), wk =   0.0082305
        k(   21) = (   0.0000000   0.3333333   0.4444444), wk =   0.0329218
        k(   22) = (  -0.0000000   0.3333333  -0.4444444), wk =   0.0329218
        k(   23) = (   0.0000000   0.3333333  -0.3333333), wk =   0.0164609
        k(   24) = (  -0.0000000   0.4444444   0.4444444), wk =   0.0082305
        k(   25) = (   0.0000000   0.4444444  -0.4444444), wk =   0.0164609
        k(   26) = (   0.1111111   0.2222222   0.3333333), wk =   0.0329218
        k(   27) = (   0.1111111   0.2222222   0.4444444), wk =   0.0658436
        k(   28) = (   0.1111111   0.2222222  -0.4444444), wk =   0.0658436
        k(   29) = (   0.1111111   0.3333333   0.4444444), wk =   0.0329218
        k(   30) = (   0.1111111   0.3333333  -0.4444444), wk =   0.0658436
        k(   31) = (   0.1111111   0.3333333  -0.3333333), wk =   0.0658436
        k(   32) = (   0.1111111   0.3333333  -0.2222222), wk =   0.0329218
        k(   33) = (   0.1111111   0.4444444  -0.4444444), wk =   0.0329218
        k(   34) = (   0.1111111   0.4444444  -0.3333333), wk =   0.0329218
        k(   35) = (   0.2222222   0.4444444  -0.3333333), wk =   0.0329218

     Dense  grid:   590195 G-vectors     FFT dimensions: ( 120, 120, 120)

     Smooth grid:   113443 G-vectors     FFT dimensions: (  72,  72,  72)

     Dynamical RAM for                 wfc:      19.28 MB

     Dynamical RAM for     wfc (w. buffer):    1368.88 MB

     Dynamical RAM for           str. fact:      27.02 MB

     Dynamical RAM for           local pot:       0.00 MB

     Dynamical RAM for          nlocal pot:      37.26 MB

     Dynamical RAM for                qrad:       7.91 MB

     Dynamical RAM for          rho,v,vnew:     133.14 MB

     Dynamical RAM for               rhoin:      44.38 MB

     Dynamical RAM for            rho*nmix:     288.18 MB

     Dynamical RAM for           G-vectors:      34.64 MB

     Dynamical RAM for          h,s,v(r/c):       1.45 MB

     Dynamical RAM for          <psi|beta>:       0.23 MB

     Dynamical RAM for                 psi:      38.56 MB

     Dynamical RAM for                hpsi:      38.56 MB

     Dynamical RAM for                spsi:      38.56 MB

     Dynamical RAM for      wfcinit/wfcrot:      47.94 MB

     Dynamical RAM for           addusdens:    1756.10 MB

     Dynamical RAM for          addusforce:    1882.25 MB

     Dynamical RAM for         addusstress:    1823.65 MB

     Estimated static dynamical RAM per process >       1.73 GB

     Estimated max dynamical RAM per process >       3.85 GB

     Check: negative core charge=   -0.000007
     Generating pointlists ...
     new r_m :   0.1458 (alat units)  1.6286 (a.u.) for type    1
     new r_m :   0.1263 (alat units)  1.4104 (a.u.) for type    2
     new r_m :   0.1263 (alat units)  1.4104 (a.u.) for type    3

     Initial potential from superposition of free atoms

     starting charge     143.9984, renormalised to     148.0000
     Starting wfcs are  110 randomized atomic wfcs
     Checking if some PAW data can be deallocated... 

     total cpu time spent up to now is       13.2 secs

     Self-consistent Calculation
[tb_dev] Currently allocated     7.92E+00 Mbytes, locked:    0 /  11
[tb_pin] Currently allocated     0.00E+00 Mbytes, locked:    0 /   0

     iteration #  1     ecut=    90.00 Ry     beta= 0.40
     Davidson diagonalization with overlap

---- Real-time Memory Report at c_bands before calling an iterative solver
          3025 MiB given to the printing process from OS
         -1678 MiB allocation reported by mallinfo(arena+hblkhd)
         56596 MiB available memory on the node where the printing process lives
     GPU memory used/free/total (MiB): 1836 / 14444 / 16280
------------------
     ethr =  1.00E-02,  avg # of iterations =  2.5

     negative rho (up, down):  0.000E+00 1.451E-04

     total cpu time spent up to now is       24.9 secs

     total energy              =   -2306.13250503 Ry
     estimated scf accuracy    <      38.49685270 Ry

     total magnetization       =    14.67 Bohr mag/cell
     absolute magnetization    =    15.25 Bohr mag/cell
[tb_dev] Currently allocated     7.92E+00 Mbytes, locked:    0 /   9
[tb_pin] Currently allocated     0.00E+00 Mbytes, locked:    0 /   0

     iteration #  2     ecut=    90.00 Ry     beta= 0.40
     Davidson diagonalization with overlap

---- Real-time Memory Report at c_bands before calling an iterative solver
          3310 MiB given to the printing process from OS
         -1559 MiB allocation reported by mallinfo(arena+hblkhd)
         56496 MiB available memory on the node where the printing process lives
     GPU memory used/free/total (MiB): 4452 / 11828 / 16280
------------------
     ethr =  1.00E-02,  avg # of iterations =  5.0

     negative rho (up, down):  0.000E+00 5.122E-05

     total cpu time spent up to now is       39.7 secs

     total energy              =   -2311.09405025 Ry
     estimated scf accuracy    <     219.45263812 Ry

     total magnetization       =     4.02 Bohr mag/cell
     absolute magnetization    =     4.13 Bohr mag/cell
[tb_dev] Currently allocated     7.92E+00 Mbytes, locked:    0 /   9
[tb_pin] Currently allocated     0.00E+00 Mbytes, locked:    0 /   0

     iteration #  3     ecut=    90.00 Ry     beta= 0.40
     Davidson diagonalization with overlap

---- Real-time Memory Report at c_bands before calling an iterative solver
          3438 MiB given to the printing process from OS
         -1522 MiB allocation reported by mallinfo(arena+hblkhd)
         56453 MiB available memory on the node where the printing process lives
     GPU memory used/free/total (MiB): 4540 / 11740 / 16280
------------------
     ethr =  1.00E-02,  avg # of iterations =  4.4

     negative rho (up, down):  0.000E+00 4.503E-05

     total cpu time spent up to now is       54.1 secs

     total energy              =   -2320.33397632 Ry
     estimated scf accuracy    <      17.86291862 Ry

     total magnetization       =    10.90 Bohr mag/cell
     absolute magnetization    =    11.10 Bohr mag/cell
[tb_dev] Currently allocated     7.92E+00 Mbytes, locked:    0 /   9
[tb_pin] Currently allocated     0.00E+00 Mbytes, locked:    0 /   0

     iteration #  4     ecut=    90.00 Ry     beta= 0.40
     Davidson diagonalization with overlap

---- Real-time Memory Report at c_bands before calling an iterative solver
          3509 MiB given to the printing process from OS
         -1485 MiB allocation reported by mallinfo(arena+hblkhd)
         56417 MiB available memory on the node where the printing process lives
     GPU memory used/free/total (MiB): 4542 / 11738 / 16280
------------------
     ethr =  1.00E-02,  avg # of iterations =  2.0

     negative rho (up, down):  0.000E+00 1.281E-04

     total cpu time spent up to now is       64.7 secs

     total energy              =   -2322.70367908 Ry
     estimated scf accuracy    <       1.07641386 Ry

     total magnetization       =    21.88 Bohr mag/cell
     absolute magnetization    =    21.88 Bohr mag/cell
[tb_dev] Currently allocated     7.92E+00 Mbytes, locked:    0 /   9
[tb_pin] Currently allocated     0.00E+00 Mbytes, locked:    0 /   0

     iteration #  5     ecut=    90.00 Ry     beta= 0.40
     Davidson diagonalization with overlap

---- Real-time Memory Report at c_bands before calling an iterative solver
          3539 MiB given to the printing process from OS
         -1455 MiB allocation reported by mallinfo(arena+hblkhd)
         56388 MiB available memory on the node where the printing process lives
     GPU memory used/free/total (MiB): 4546 / 11734 / 16280
------------------
     ethr =  7.27E-04,  avg # of iterations =  2.0

     negative rho (up, down):  0.000E+00 1.488E-04

     total cpu time spent up to now is       75.2 secs

     total energy              =   -2322.84014205 Ry
     estimated scf accuracy    <       3.32018460 Ry

     total magnetization       =    16.94 Bohr mag/cell
     absolute magnetization    =    17.02 Bohr mag/cell
[tb_dev] Currently allocated     7.92E+00 Mbytes, locked:    0 /   9
[tb_pin] Currently allocated     0.00E+00 Mbytes, locked:    0 /   0

     iteration #  6     ecut=    90.00 Ry     beta= 0.40
     Davidson diagonalization with overlap

---- Real-time Memory Report at c_bands before calling an iterative solver
          3569 MiB given to the printing process from OS
         -1426 MiB allocation reported by mallinfo(arena+hblkhd)
         56355 MiB available memory on the node where the printing process lives
     GPU memory used/free/total (MiB): 4546 / 11734 / 16280
------------------
     ethr =  7.27E-04,  avg # of iterations =  1.0

     negative rho (up, down):  0.000E+00 2.515E-04

     total cpu time spent up to now is       84.9 secs

     total energy              =   -2322.87397646 Ry
     estimated scf accuracy    <       0.74614320 Ry

     total magnetization       =    18.18 Bohr mag/cell
     absolute magnetization    =    18.20 Bohr mag/cell
[tb_dev] Currently allocated     7.92E+00 Mbytes, locked:    0 /   9
[tb_pin] Currently allocated     0.00E+00 Mbytes, locked:    0 /   0

     iteration #  7     ecut=    90.00 Ry     beta= 0.40
     Davidson diagonalization with overlap

---- Real-time Memory Report at c_bands before calling an iterative solver
          3606 MiB given to the printing process from OS
         -1389 MiB allocation reported by mallinfo(arena+hblkhd)
         56320 MiB available memory on the node where the printing process lives
     GPU memory used/free/total (MiB): 4546 / 11734 / 16280
------------------
     ethr =  5.04E-04,  avg # of iterations =  1.0

     negative rho (up, down):  0.000E+00 2.759E-04

     total cpu time spent up to now is       94.7 secs

     total energy              =   -2322.90762722 Ry
     estimated scf accuracy    <       0.03592253 Ry

     total magnetization       =    17.87 Bohr mag/cell
     absolute magnetization    =    17.90 Bohr mag/cell
[tb_dev] Currently allocated     7.92E+00 Mbytes, locked:    0 /   9
[tb_pin] Currently allocated     0.00E+00 Mbytes, locked:    0 /   0

     iteration #  8     ecut=    90.00 Ry     beta= 0.40
     Davidson diagonalization with overlap

---- Real-time Memory Report at c_bands before calling an iterative solver
          3639 MiB given to the printing process from OS
         -1356 MiB allocation reported by mallinfo(arena+hblkhd)
         56288 MiB available memory on the node where the printing process lives
     GPU memory used/free/total (MiB): 4546 / 11734 / 16280
------------------
     ethr =  2.43E-05,  avg # of iterations =  5.6

     negative rho (up, down):  0.000E+00 2.828E-04

     total cpu time spent up to now is      108.7 secs

     total energy              =   -2322.92090157 Ry
     estimated scf accuracy    <       0.74664025 Ry

     total magnetization       =    17.33 Bohr mag/cell
     absolute magnetization    =    17.37 Bohr mag/cell
[tb_dev] Currently allocated     7.92E+00 Mbytes, locked:    0 /   9
[tb_pin] Currently allocated     0.00E+00 Mbytes, locked:    0 /   0

     iteration #  9     ecut=    90.00 Ry     beta= 0.40
     Davidson diagonalization with overlap

---- Real-time Memory Report at c_bands before calling an iterative solver
          3672 MiB given to the printing process from OS
         -1322 MiB allocation reported by mallinfo(arena+hblkhd)
         56255 MiB available memory on the node where the printing process lives
     GPU memory used/free/total (MiB): 4546 / 11734 / 16280
------------------
     ethr =  2.43E-05,  avg # of iterations =  1.4

     negative rho (up, down):  0.000E+00 3.406E-04

     total cpu time spent up to now is      118.7 secs

     total energy              =   -2322.92228489 Ry
     estimated scf accuracy    <       0.37146174 Ry

     total magnetization       =    17.23 Bohr mag/cell
     absolute magnetization    =    17.28 Bohr mag/cell
[tb_dev] Currently allocated     7.92E+00 Mbytes, locked:    0 /   9
[tb_pin] Currently allocated     0.00E+00 Mbytes, locked:    0 /   0

     iteration # 10     ecut=    90.00 Ry     beta= 0.40
     Davidson diagonalization with overlap

---- Real-time Memory Report at c_bands before calling an iterative solver
          3702 MiB given to the printing process from OS
         -1293 MiB allocation reported by mallinfo(arena+hblkhd)
         56226 MiB available memory on the node where the printing process lives
     GPU memory used/free/total (MiB): 4546 / 11734 / 16280
------------------
     ethr =  2.43E-05,  avg # of iterations =  1.1

     negative rho (up, down):  0.000E+00 3.354E-04

     total cpu time spent up to now is      128.6 secs

     total energy              =   -2322.93050805 Ry
     estimated scf accuracy    <       0.19935438 Ry

     total magnetization       =    16.81 Bohr mag/cell
     absolute magnetization    =    16.87 Bohr mag/cell
[tb_dev] Currently allocated     7.92E+00 Mbytes, locked:    0 /   9
[tb_pin] Currently allocated     0.00E+00 Mbytes, locked:    0 /   0

     iteration # 11     ecut=    90.00 Ry     beta= 0.40
     Davidson diagonalization with overlap

---- Real-time Memory Report at c_bands before calling an iterative solver
          3725 MiB given to the printing process from OS
         -1270 MiB allocation reported by mallinfo(arena+hblkhd)
         56204 MiB available memory on the node where the printing process lives
     GPU memory used/free/total (MiB): 4546 / 11734 / 16280
------------------
     ethr =  2.43E-05,  avg # of iterations =  1.0

     negative rho (up, down):  0.000E+00 3.469E-04

     total cpu time spent up to now is      138.4 secs

     total energy              =   -2322.92758673 Ry
     estimated scf accuracy    <       0.22715812 Ry

     total magnetization       =    16.39 Bohr mag/cell
     absolute magnetization    =    16.46 Bohr mag/cell
[tb_dev] Currently allocated     7.92E+00 Mbytes, locked:    0 /   9
[tb_pin] Currently allocated     0.00E+00 Mbytes, locked:    0 /   0

     iteration # 12     ecut=    90.00 Ry     beta= 0.40
     Davidson diagonalization with overlap

---- Real-time Memory Report at c_bands before calling an iterative solver
          3748 MiB given to the printing process from OS
         -1247 MiB allocation reported by mallinfo(arena+hblkhd)
         56183 MiB available memory on the node where the printing process lives
     GPU memory used/free/total (MiB): 4546 / 11734 / 16280
------------------
     ethr =  2.43E-05,  avg # of iterations =  1.5

     negative rho (up, down):  0.000E+00 3.582E-04

     total cpu time spent up to now is      148.6 secs

     total energy              =   -2322.87996284 Ry
     estimated scf accuracy    <       0.02238826 Ry

     total magnetization       =    15.22 Bohr mag/cell
     absolute magnetization    =    15.59 Bohr mag/cell
[tb_dev] Currently allocated     7.92E+00 Mbytes, locked:    0 /   9
[tb_pin] Currently allocated     0.00E+00 Mbytes, locked:    0 /   0

     iteration # 13     ecut=    90.00 Ry     beta= 0.40
     Davidson diagonalization with overlap

---- Real-time Memory Report at c_bands before calling an iterative solver
          3771 MiB given to the printing process from OS
         -1224 MiB allocation reported by mallinfo(arena+hblkhd)
         56159 MiB available memory on the node where the printing process lives
     GPU memory used/free/total (MiB): 4546 / 11734 / 16280
------------------
     ethr =  1.51E-05,  avg # of iterations =  2.0

     negative rho (up, down):  0.000E+00 3.296E-04

     total cpu time spent up to now is      159.4 secs

     total energy              =   -2322.80942160 Ry
     estimated scf accuracy    <       0.09920892 Ry

     total magnetization       =    17.32 Bohr mag/cell
     absolute magnetization    =    17.38 Bohr mag/cell
[tb_dev] Currently allocated     7.92E+00 Mbytes, locked:    0 /   9
[tb_pin] Currently allocated     0.00E+00 Mbytes, locked:    0 /   0

     iteration # 14     ecut=    90.00 Ry     beta= 0.40
     Davidson diagonalization with overlap

---- Real-time Memory Report at c_bands before calling an iterative solver
          3794 MiB given to the printing process from OS
         -1202 MiB allocation reported by mallinfo(arena+hblkhd)
         56137 MiB available memory on the node where the printing process lives
     GPU memory used/free/total (MiB): 4546 / 11734 / 16280
------------------
     ethr =  1.51E-05,  avg # of iterations =  2.7

     negative rho (up, down):  0.000E+00 3.073E-04

     total cpu time spent up to now is      171.6 secs

     total energy              =   -2322.53486997 Ry
     estimated scf accuracy    <       0.49324192 Ry

     total magnetization       =    20.86 Bohr mag/cell
     absolute magnetization    =    20.89 Bohr mag/cell
[tb_dev] Currently allocated     7.92E+00 Mbytes, locked:    0 /   9
[tb_pin] Currently allocated     0.00E+00 Mbytes, locked:    0 /   0

     iteration # 15     ecut=    90.00 Ry     beta= 0.40
     Davidson diagonalization with overlap

---- Real-time Memory Report at c_bands before calling an iterative solver
          3817 MiB given to the printing process from OS
         -1179 MiB allocation reported by mallinfo(arena+hblkhd)
         56115 MiB available memory on the node where the printing process lives
     GPU memory used/free/total (MiB): 4546 / 11734 / 16280
------------------
     ethr =  1.51E-05,  avg # of iterations =  4.6

     negative rho (up, down):  0.000E+00 2.694E-04

     total cpu time spent up to now is      186.0 secs

     total energy              =   -2322.16934762 Ry
     estimated scf accuracy    <       1.80536374 Ry

     total magnetization       =    10.70 Bohr mag/cell
     absolute magnetization    =    17.02 Bohr mag/cell
[tb_dev] Currently allocated     7.92E+00 Mbytes, locked:    0 /   9
[tb_pin] Currently allocated     0.00E+00 Mbytes, locked:    0 /   0

     iteration # 16     ecut=    90.00 Ry     beta= 0.40
     Davidson diagonalization with overlap

---- Real-time Memory Report at c_bands before calling an iterative solver
          3840 MiB given to the printing process from OS
         -1156 MiB allocation reported by mallinfo(arena+hblkhd)
         56090 MiB available memory on the node where the printing process lives
     GPU memory used/free/total (MiB): 4546 / 11734 / 16280
------------------
     ethr =  1.51E-05,  avg # of iterations =  4.7

     negative rho (up, down):  0.000E+00 2.757E-04

     total cpu time spent up to now is      200.9 secs

     total energy              =   -2322.88487438 Ry
     estimated scf accuracy    <       0.55523291 Ry

     total magnetization       =    21.25 Bohr mag/cell
     absolute magnetization    =    21.27 Bohr mag/cell
[tb_dev] Currently allocated     7.92E+00 Mbytes, locked:    0 /   9
[tb_pin] Currently allocated     0.00E+00 Mbytes, locked:    0 /   0

     iteration # 17     ecut=    90.00 Ry     beta= 0.40
     Davidson diagonalization with overlap

---- Real-time Memory Report at c_bands before calling an iterative solver
          3863 MiB given to the printing process from OS
         -1133 MiB allocation reported by mallinfo(arena+hblkhd)
         56050 MiB available memory on the node where the printing process lives
     GPU memory used/free/total (MiB): 4546 / 11734 / 16280
------------------
     ethr =  1.51E-05,  avg # of iterations =  1.0

     negative rho (up, down):  0.000E+00 2.837E-04

     total cpu time spent up to now is      210.7 secs

     total energy              =   -2322.89499173 Ry
     estimated scf accuracy    <       0.71629739 Ry

     total magnetization       =    21.11 Bohr mag/cell
     absolute magnetization    =    21.14 Bohr mag/cell
[tb_dev] Currently allocated     7.92E+00 Mbytes, locked:    0 /   9
[tb_pin] Currently allocated     0.00E+00 Mbytes, locked:    0 /   0

     iteration # 18     ecut=    90.00 Ry     beta= 0.40
     Davidson diagonalization with overlap

---- Real-time Memory Report at c_bands before calling an iterative solver
          3885 MiB given to the printing process from OS
         -1097 MiB allocation reported by mallinfo(arena+hblkhd)
         56031 MiB available memory on the node where the printing process lives
     GPU memory used/free/total (MiB): 4546 / 11734 / 16280
------------------
     ethr =  1.51E-05,  avg # of iterations =  1.4

     negative rho (up, down):  0.000E+00 2.804E-04

     total cpu time spent up to now is      220.8 secs

     total energy              =   -2322.89344185 Ry
     estimated scf accuracy    <       0.67609133 Ry

     total magnetization       =    20.33 Bohr mag/cell
     absolute magnetization    =    20.36 Bohr mag/cell
[tb_dev] Currently allocated     7.92E+00 Mbytes, locked:    0 /   9
[tb_pin] Currently allocated     0.00E+00 Mbytes, locked:    0 /   0

     iteration # 19     ecut=    90.00 Ry     beta= 0.40
     Davidson diagonalization with overlap

---- Real-time Memory Report at c_bands before calling an iterative solver
          3908 MiB given to the printing process from OS
         -1075 MiB allocation reported by mallinfo(arena+hblkhd)
         56010 MiB available memory on the node where the printing process lives
     GPU memory used/free/total (MiB): 4546 / 11734 / 16280
------------------
     ethr =  1.51E-05,  avg # of iterations =  1.0

     negative rho (up, down):  0.000E+00 2.826E-04

     total cpu time spent up to now is      230.6 secs

     total energy              =   -2322.83615858 Ry
     estimated scf accuracy    <       0.46838362 Ry

     total magnetization       =    20.06 Bohr mag/cell
     absolute magnetization    =    20.08 Bohr mag/cell
[tb_dev] Currently allocated     7.92E+00 Mbytes, locked:    0 /   9
[tb_pin] Currently allocated     0.00E+00 Mbytes, locked:    0 /   0

     iteration # 20     ecut=    90.00 Ry     beta= 0.40
     Davidson diagonalization with overlap

---- Real-time Memory Report at c_bands before calling an iterative solver
          3931 MiB given to the printing process from OS
         -1052 MiB allocation reported by mallinfo(arena+hblkhd)
         55989 MiB available memory on the node where the printing process lives
     GPU memory used/free/total (MiB): 4546 / 11734 / 16280
------------------
     ethr =  1.51E-05,  avg # of iterations =  2.0

     negative rho (up, down):  0.000E+00 2.866E-04

     total cpu time spent up to now is      241.7 secs

     total energy              =   -2322.85494934 Ry
     estimated scf accuracy    <       0.72858891 Ry

     total magnetization       =    21.90 Bohr mag/cell
     absolute magnetization    =    21.92 Bohr mag/cell
[tb_dev] Currently allocated     7.92E+00 Mbytes, locked:    0 /   9
[tb_pin] Currently allocated     0.00E+00 Mbytes, locked:    0 /   0

     iteration # 21     ecut=    90.00 Ry     beta= 0.40
     Davidson diagonalization with overlap

---- Real-time Memory Report at c_bands before calling an iterative solver
          3953 MiB given to the printing process from OS
         -1029 MiB allocation reported by mallinfo(arena+hblkhd)
         55968 MiB available memory on the node where the printing process lives
     GPU memory used/free/total (MiB): 4546 / 11734 / 16280
------------------
     ethr =  1.51E-05,  avg # of iterations =  1.0

     negative rho (up, down):  0.000E+00 2.926E-04

     total cpu time spent up to now is      251.6 secs

     total energy              =   -2322.85667426 Ry
     estimated scf accuracy    <       0.75189260 Ry

     total magnetization       =    21.95 Bohr mag/cell
     absolute magnetization    =    21.97 Bohr mag/cell
[tb_dev] Currently allocated     7.92E+00 Mbytes, locked:    0 /   9
[tb_pin] Currently allocated     0.00E+00 Mbytes, locked:    0 /   0

     iteration # 22     ecut=    90.00 Ry     beta= 0.40
     Davidson diagonalization with overlap

---- Real-time Memory Report at c_bands before calling an iterative solver
          3976 MiB given to the printing process from OS
         -1006 MiB allocation reported by mallinfo(arena+hblkhd)
         55945 MiB available memory on the node where the printing process lives
     GPU memory used/free/total (MiB): 4546 / 11734 / 16280
------------------
     ethr =  1.51E-05,  avg # of iterations =  1.0

     negative rho (up, down):  0.000E+00 2.710E-04

     total cpu time spent up to now is      261.5 secs

     total energy              =   -2322.84937290 Ry
     estimated scf accuracy    <       0.74865470 Ry

     total magnetization       =    21.91 Bohr mag/cell
     absolute magnetization    =    21.93 Bohr mag/cell
[tb_dev] Currently allocated     7.92E+00 Mbytes, locked:    0 /   9
[tb_pin] Currently allocated     0.00E+00 Mbytes, locked:    0 /   0

     iteration # 23     ecut=    90.00 Ry     beta= 0.40
     Davidson diagonalization with overlap

---- Real-time Memory Report at c_bands before calling an iterative solver
          3999 MiB given to the printing process from OS
          -983 MiB allocation reported by mallinfo(arena+hblkhd)
         55913 MiB available memory on the node where the printing process lives
     GPU memory used/free/total (MiB): 4546 / 11734 / 16280
------------------
     ethr =  1.51E-05,  avg # of iterations =  2.1

     negative rho (up, down):  0.000E+00 2.695E-04

     total cpu time spent up to now is      273.1 secs

     total energy              =   -2322.87980265 Ry
     estimated scf accuracy    <       0.04252002 Ry

     total magnetization       =    18.85 Bohr mag/cell
     absolute magnetization    =    18.89 Bohr mag/cell
[tb_dev] Currently allocated     7.92E+00 Mbytes, locked:    0 /   9
[tb_pin] Currently allocated     0.00E+00 Mbytes, locked:    0 /   0

     iteration # 24     ecut=    90.00 Ry     beta= 0.40
     Davidson diagonalization with overlap

---- Real-time Memory Report at c_bands before calling an iterative solver
          4021 MiB given to the printing process from OS
          -961 MiB allocation reported by mallinfo(arena+hblkhd)
         55890 MiB available memory on the node where the printing process lives
     GPU memory used/free/total (MiB): 4546 / 11734 / 16280
------------------
     ethr =  1.51E-05,  avg # of iterations =  1.0

     negative rho (up, down):  0.000E+00 2.584E-04

     total cpu time spent up to now is      282.9 secs

     total energy              =   -2322.87420386 Ry
     estimated scf accuracy    <       0.17164591 Ry

     total magnetization       =    19.81 Bohr mag/cell
     absolute magnetization    =    19.84 Bohr mag/cell
[tb_dev] Currently allocated     7.92E+00 Mbytes, locked:    0 /   9
[tb_pin] Currently allocated     0.00E+00 Mbytes, locked:    0 /   0

     iteration # 25     ecut=    90.00 Ry     beta= 0.40
     Davidson diagonalization with overlap

---- Real-time Memory Report at c_bands before calling an iterative solver
          4044 MiB given to the printing process from OS
          -938 MiB allocation reported by mallinfo(arena+hblkhd)
         55868 MiB available memory on the node where the printing process lives
     GPU memory used/free/total (MiB): 4546 / 11734 / 16280
------------------
     ethr =  1.51E-05,  avg # of iterations =  2.0

     negative rho (up, down):  0.000E+00 2.565E-04

     total cpu time spent up to now is      294.1 secs

     total energy              =   -2322.91724933 Ry
     estimated scf accuracy    <       0.05949377 Ry

     total magnetization       =    16.95 Bohr mag/cell
     absolute magnetization    =    16.99 Bohr mag/cell
[tb_dev] Currently allocated     7.92E+00 Mbytes, locked:    0 /   9
[tb_pin] Currently allocated     0.00E+00 Mbytes, locked:    0 /   0

     iteration # 26     ecut=    90.00 Ry     beta= 0.40
     Davidson diagonalization with overlap

---- Real-time Memory Report at c_bands before calling an iterative solver
          4067 MiB given to the printing process from OS
          -906 MiB allocation reported by mallinfo(arena+hblkhd)
         55836 MiB available memory on the node where the printing process lives
     GPU memory used/free/total (MiB): 4546 / 11734 / 16280
------------------
     ethr =  1.51E-05,  avg # of iterations =  1.0

     negative rho (up, down):  0.000E+00 2.545E-04

     total cpu time spent up to now is      303.9 secs

     total energy              =   -2322.92066828 Ry
     estimated scf accuracy    <       0.03656576 Ry

     total magnetization       =    16.64 Bohr mag/cell
     absolute magnetization    =    16.69 Bohr mag/cell
[tb_dev] Currently allocated     7.92E+00 Mbytes, locked:    0 /   9
[tb_pin] Currently allocated     0.00E+00 Mbytes, locked:    0 /   0

     iteration # 27     ecut=    90.00 Ry     beta= 0.40
     Davidson diagonalization with overlap

---- Real-time Memory Report at c_bands before calling an iterative solver
          4089 MiB given to the printing process from OS
          -883 MiB allocation reported by mallinfo(arena+hblkhd)
         55814 MiB available memory on the node where the printing process lives
     GPU memory used/free/total (MiB): 4546 / 11734 / 16280
------------------
     ethr =  1.51E-05,  avg # of iterations =  1.0

     negative rho (up, down):  0.000E+00 2.530E-04

     total cpu time spent up to now is      313.7 secs

     total energy              =   -2322.92020878 Ry
     estimated scf accuracy    <       0.03416922 Ry

     total magnetization       =    16.38 Bohr mag/cell
     absolute magnetization    =    16.43 Bohr mag/cell
[tb_dev] Currently allocated     7.92E+00 Mbytes, locked:    0 /   9
[tb_pin] Currently allocated     0.00E+00 Mbytes, locked:    0 /   0

     iteration # 28     ecut=    90.00 Ry     beta= 0.40
     Davidson diagonalization with overlap

---- Real-time Memory Report at c_bands before calling an iterative solver
          4112 MiB given to the printing process from OS
          -861 MiB allocation reported by mallinfo(arena+hblkhd)
         55792 MiB available memory on the node where the printing process lives
     GPU memory used/free/total (MiB): 4546 / 11734 / 16280
------------------
     ethr =  1.51E-05,  avg # of iterations =  2.5

     negative rho (up, down):  0.000E+00 2.643E-04

     total cpu time spent up to now is      324.7 secs

     total energy              =   -2322.78227481 Ry
     estimated scf accuracy    <       0.05821712 Ry

     total magnetization       =    14.33 Bohr mag/cell
     absolute magnetization    =    15.07 Bohr mag/cell
[tb_dev] Currently allocated     7.92E+00 Mbytes, locked:    0 /   9
[tb_pin] Currently allocated     0.00E+00 Mbytes, locked:    0 /   0

     iteration # 29     ecut=    90.00 Ry     beta= 0.40
     Davidson diagonalization with overlap

---- Real-time Memory Report at c_bands before calling an iterative solver
          4135 MiB given to the printing process from OS
          -838 MiB allocation reported by mallinfo(arena+hblkhd)
         55770 MiB available memory on the node where the printing process lives
     GPU memory used/free/total (MiB): 4546 / 11734 / 16280
------------------
     ethr =  1.51E-05,  avg # of iterations =  2.6

     negative rho (up, down):  0.000E+00 2.650E-04

     total cpu time spent up to now is      337.0 secs

     total energy              =   -2322.89441396 Ry
     estimated scf accuracy    <       0.02099761 Ry

     total magnetization       =    18.39 Bohr mag/cell
     absolute magnetization    =    18.42 Bohr mag/cell
[tb_dev] Currently allocated     7.92E+00 Mbytes, locked:    0 /   9
[tb_pin] Currently allocated     0.00E+00 Mbytes, locked:    0 /   0

     iteration # 30     ecut=    90.00 Ry     beta= 0.40
     Davidson diagonalization with overlap

---- Real-time Memory Report at c_bands before calling an iterative solver
          4158 MiB given to the printing process from OS
          -837 MiB allocation reported by mallinfo(arena+hblkhd)
         55752 MiB available memory on the node where the printing process lives
     GPU memory used/free/total (MiB): 4546 / 11734 / 16280
------------------
     ethr =  1.42E-05,  avg # of iterations =  1.0

     negative rho (up, down):  0.000E+00 2.706E-04

     total cpu time spent up to now is      346.8 secs

     total energy              =   -2322.84461349 Ry
     estimated scf accuracy    <       0.01979836 Ry

     total magnetization       =    18.56 Bohr mag/cell
     absolute magnetization    =    18.60 Bohr mag/cell
[tb_dev] Currently allocated     7.92E+00 Mbytes, locked:    0 /   9
[tb_pin] Currently allocated     0.00E+00 Mbytes, locked:    0 /   0

     iteration # 31     ecut=    90.00 Ry     beta= 0.40
     Davidson diagonalization with overlap

---- Real-time Memory Report at c_bands before calling an iterative solver
          4181 MiB given to the printing process from OS
          -815 MiB allocation reported by mallinfo(arena+hblkhd)
         55730 MiB available memory on the node where the printing process lives
     GPU memory used/free/total (MiB): 4546 / 11734 / 16280
------------------
     ethr =  1.34E-05,  avg # of iterations =  2.0

     negative rho (up, down):  0.000E+00 2.642E-04

     total cpu time spent up to now is      357.9 secs

     total energy              =   -2322.88272966 Ry
     estimated scf accuracy    <       0.11914488 Ry

     total magnetization       =    20.60 Bohr mag/cell
     absolute magnetization    =    20.63 Bohr mag/cell
[tb_dev] Currently allocated     7.92E+00 Mbytes, locked:    0 /   9
[tb_pin] Currently allocated     0.00E+00 Mbytes, locked:    0 /   0

     iteration # 32     ecut=    90.00 Ry     beta= 0.40
     Davidson diagonalization with overlap

---- Real-time Memory Report at c_bands before calling an iterative solver
          4203 MiB given to the printing process from OS
          -774 MiB allocation reported by mallinfo(arena+hblkhd)
         55706 MiB available memory on the node where the printing process lives
     GPU memory used/free/total (MiB): 4546 / 11734 / 16280
------------------
     ethr =  1.34E-05,  avg # of iterations =  2.1

     negative rho (up, down):  0.000E+00 2.397E-04

     total cpu time spent up to now is      369.2 secs

     total energy              =   -2322.73892082 Ry
     estimated scf accuracy    <       0.10844366 Ry

     total magnetization       =    18.38 Bohr mag/cell
     absolute magnetization    =    18.42 Bohr mag/cell
[tb_dev] Currently allocated     7.92E+00 Mbytes, locked:    0 /   9
[tb_pin] Currently allocated     0.00E+00 Mbytes, locked:    0 /   0

     iteration # 33     ecut=    90.00 Ry     beta= 0.40
     Davidson diagonalization with overlap

---- Real-time Memory Report at c_bands before calling an iterative solver
          4226 MiB given to the printing process from OS
          -751 MiB allocation reported by mallinfo(arena+hblkhd)
         55686 MiB available memory on the node where the printing process lives
     GPU memory used/free/total (MiB): 4546 / 11734 / 16280
------------------
     ethr =  1.34E-05,  avg # of iterations =  4.4

     negative rho (up, down):  0.000E+00 2.468E-04

     total cpu time spent up to now is      383.3 secs

     total energy              =   -2322.93584069 Ry
     estimated scf accuracy    <       2.63542954 Ry

     total magnetization       =    10.16 Bohr mag/cell
     absolute magnetization    =    15.86 Bohr mag/cell
[tb_dev] Currently allocated     7.92E+00 Mbytes, locked:    0 /   9
[tb_pin] Currently allocated     0.00E+00 Mbytes, locked:    0 /   0

     iteration # 34     ecut=    90.00 Ry     beta= 0.40
     Davidson diagonalization with overlap

---- Real-time Memory Report at c_bands before calling an iterative solver
          4248 MiB given to the printing process from OS
          -728 MiB allocation reported by mallinfo(arena+hblkhd)
         55662 MiB available memory on the node where the printing process lives
     GPU memory used/free/total (MiB): 4546 / 11734 / 16280
------------------
     ethr =  1.34E-05,  avg # of iterations =  2.3

     negative rho (up, down):  0.000E+00 2.462E-04

     total cpu time spent up to now is      394.3 secs

     total energy              =   -2322.96903837 Ry
     estimated scf accuracy    <       0.76750818 Ry

     total magnetization       =    12.72 Bohr mag/cell
     absolute magnetization    =    14.86 Bohr mag/cell
[tb_dev] Currently allocated     7.92E+00 Mbytes, locked:    0 /   9
[tb_pin] Currently allocated     0.00E+00 Mbytes, locked:    0 /   0

     iteration # 35     ecut=    90.00 Ry     beta= 0.40
     Davidson diagonalization with overlap

---- Real-time Memory Report at c_bands before calling an iterative solver
          4271 MiB given to the printing process from OS
          -705 MiB allocation reported by mallinfo(arena+hblkhd)
         55639 MiB available memory on the node where the printing process lives
     GPU memory used/free/total (MiB): 4546 / 11734 / 16280
------------------
     ethr =  1.34E-05,  avg # of iterations =  1.0

     negative rho (up, down):  0.000E+00 2.672E-04

     total cpu time spent up to now is      404.1 secs

     total energy              =   -2322.72087471 Ry
     estimated scf accuracy    <       0.76072633 Ry

     total magnetization       =    12.78 Bohr mag/cell
     absolute magnetization    =    14.79 Bohr mag/cell
[tb_dev] Currently allocated     7.92E+00 Mbytes, locked:    0 /   9
[tb_pin] Currently allocated     0.00E+00 Mbytes, locked:    0 /   0

     iteration # 36     ecut=    90.00 Ry     beta= 0.40
     Davidson diagonalization with overlap

---- Real-time Memory Report at c_bands before calling an iterative solver
          4294 MiB given to the printing process from OS
          -683 MiB allocation reported by mallinfo(arena+hblkhd)
         55617 MiB available memory on the node where the printing process lives
     GPU memory used/free/total (MiB): 4546 / 11734 / 16280
------------------
     ethr =  1.34E-05,  avg # of iterations =  3.1

     negative rho (up, down):  0.000E+00 2.523E-04

     total cpu time spent up to now is      417.1 secs

     total energy              =   -2322.90711773 Ry
     estimated scf accuracy    <       0.07565276 Ry

     total magnetization       =    18.33 Bohr mag/cell
     absolute magnetization    =    18.37 Bohr mag/cell
[tb_dev] Currently allocated     7.92E+00 Mbytes, locked:    0 /   9
[tb_pin] Currently allocated     0.00E+00 Mbytes, locked:    0 /   0

     iteration # 37     ecut=    90.00 Ry     beta= 0.40
     Davidson diagonalization with overlap

---- Real-time Memory Report at c_bands before calling an iterative solver
          4316 MiB given to the printing process from OS
          -660 MiB allocation reported by mallinfo(arena+hblkhd)
         55594 MiB available memory on the node where the printing process lives
     GPU memory used/free/total (MiB): 4546 / 11734 / 16280
------------------
     ethr =  1.34E-05,  avg # of iterations =  2.0

     negative rho (up, down):  0.000E+00 2.578E-04

     total cpu time spent up to now is      428.0 secs

     total energy              =   -2322.90744445 Ry
     estimated scf accuracy    <       0.21768339 Ry

     total magnetization       =    17.46 Bohr mag/cell
     absolute magnetization    =    17.50 Bohr mag/cell
[tb_dev] Currently allocated     7.92E+00 Mbytes, locked:    0 /   9
[tb_pin] Currently allocated     0.00E+00 Mbytes, locked:    0 /   0

     iteration # 38     ecut=    90.00 Ry     beta= 0.40
     Davidson diagonalization with overlap

---- Real-time Memory Report at c_bands before calling an iterative solver
          4339 MiB given to the printing process from OS
          -637 MiB allocation reported by mallinfo(arena+hblkhd)
         55565 MiB available memory on the node where the printing process lives
     GPU memory used/free/total (MiB): 4546 / 11734 / 16280
------------------
     ethr =  1.34E-05,  avg # of iterations =  1.0

     negative rho (up, down):  0.000E+00 2.625E-04

     total cpu time spent up to now is      437.8 secs

     total energy              =   -2322.89474560 Ry
     estimated scf accuracy    <       0.15008082 Ry

     total magnetization       =    17.77 Bohr mag/cell
     absolute magnetization    =    17.80 Bohr mag/cell
[tb_dev] Currently allocated     7.92E+00 Mbytes, locked:    0 /   9
[tb_pin] Currently allocated     0.00E+00 Mbytes, locked:    0 /   0

     iteration # 39     ecut=    90.00 Ry     beta= 0.40
     Davidson diagonalization with overlap

---- Real-time Memory Report at c_bands before calling an iterative solver
          4363 MiB given to the printing process from OS
          -614 MiB allocation reported by mallinfo(arena+hblkhd)
         55522 MiB available memory on the node where the printing process lives
     GPU memory used/free/total (MiB): 4546 / 11734 / 16280
------------------
     ethr =  1.34E-05,  avg # of iterations =  1.4

     negative rho (up, down):  0.000E+00 2.651E-04

     total cpu time spent up to now is      448.0 secs

     total energy              =   -2322.89277599 Ry
     estimated scf accuracy    <       0.20641335 Ry

     total magnetization       =    18.66 Bohr mag/cell
     absolute magnetization    =    18.69 Bohr mag/cell
[tb_dev] Currently allocated     7.92E+00 Mbytes, locked:    0 /   9
[tb_pin] Currently allocated     0.00E+00 Mbytes, locked:    0 /   0

     iteration # 40     ecut=    90.00 Ry     beta= 0.40
     Davidson diagonalization with overlap

---- Real-time Memory Report at c_bands before calling an iterative solver
          4387 MiB given to the printing process from OS
          -592 MiB allocation reported by mallinfo(arena+hblkhd)
         55506 MiB available memory on the node where the printing process lives
     GPU memory used/free/total (MiB): 4546 / 11734 / 16280
------------------
     ethr =  1.34E-05,  avg # of iterations =  1.0

     negative rho (up, down):  0.000E+00 2.680E-04

     total cpu time spent up to now is      457.9 secs

     total energy              =   -2322.87957495 Ry
     estimated scf accuracy    <       0.22389285 Ry

     total magnetization       =    19.08 Bohr mag/cell
     absolute magnetization    =    19.11 Bohr mag/cell
[tb_dev] Currently allocated     7.92E+00 Mbytes, locked:    0 /   9
[tb_pin] Currently allocated     0.00E+00 Mbytes, locked:    0 /   0

     iteration # 41     ecut=    90.00 Ry     beta= 0.40
     Davidson diagonalization with overlap

---- Real-time Memory Report at c_bands before calling an iterative solver
          4409 MiB given to the printing process from OS
          -569 MiB allocation reported by mallinfo(arena+hblkhd)
         55486 MiB available memory on the node where the printing process lives
     GPU memory used/free/total (MiB): 4546 / 11734 / 16280
------------------
     ethr =  1.34E-05,  avg # of iterations =  1.4

     negative rho (up, down):  0.000E+00 2.668E-04

     total cpu time spent up to now is      468.0 secs

     total energy              =   -2322.88567268 Ry
     estimated scf accuracy    <       0.25884704 Ry

     total magnetization       =    19.84 Bohr mag/cell
     absolute magnetization    =    19.86 Bohr mag/cell
[tb_dev] Currently allocated     7.92E+00 Mbytes, locked:    0 /   9
[tb_pin] Currently allocated     0.00E+00 Mbytes, locked:    0 /   0

     iteration # 42     ecut=    90.00 Ry     beta= 0.40
     Davidson diagonalization with overlap

---- Real-time Memory Report at c_bands before calling an iterative solver
          4432 MiB given to the printing process from OS
          -546 MiB allocation reported by mallinfo(arena+hblkhd)
         55464 MiB available memory on the node where the printing process lives
     GPU memory used/free/total (MiB): 4546 / 11734 / 16280
------------------
     ethr =  1.34E-05,  avg # of iterations =  1.0

     negative rho (up, down):  0.000E+00 2.693E-04

     total cpu time spent up to now is      477.9 secs

     total energy              =   -2322.87956092 Ry
     estimated scf accuracy    <       0.24002408 Ry

     total magnetization       =    19.59 Bohr mag/cell
     absolute magnetization    =    19.62 Bohr mag/cell
[tb_dev] Currently allocated     7.92E+00 Mbytes, locked:    0 /   9
[tb_pin] Currently allocated     0.00E+00 Mbytes, locked:    0 /   0

     iteration # 43     ecut=    90.00 Ry     beta= 0.40
     Davidson diagonalization with overlap

---- Real-time Memory Report at c_bands before calling an iterative solver
          4454 MiB given to the printing process from OS
          -518 MiB allocation reported by mallinfo(arena+hblkhd)
         55437 MiB available memory on the node where the printing process lives
     GPU memory used/free/total (MiB): 4546 / 11734 / 16280
------------------
     ethr =  1.34E-05,  avg # of iterations =  1.0

     negative rho (up, down):  0.000E+00 2.680E-04

     total cpu time spent up to now is      487.8 secs

     total energy              =   -2322.88116493 Ry
     estimated scf accuracy    <       0.20048046 Ry

     total magnetization       =    19.93 Bohr mag/cell
     absolute magnetization    =    19.95 Bohr mag/cell
[tb_dev] Currently allocated     7.92E+00 Mbytes, locked:    0 /   9
[tb_pin] Currently allocated     0.00E+00 Mbytes, locked:    0 /   0

     iteration # 44     ecut=    90.00 Ry     beta= 0.40
     Davidson diagonalization with overlap

---- Real-time Memory Report at c_bands before calling an iterative solver
[...]
     estimated scf accuracy    <       0.53347235 Ry

     total magnetization       =    13.39 Bohr mag/cell
     absolute magnetization    =    14.64 Bohr mag/cell
[tb_dev] Currently allocated     7.92E+00 Mbytes, locked:    0 /   9
[tb_pin] Currently allocated     0.00E+00 Mbytes, locked:    0 /   0

     iteration # 66     ecut=    90.00 Ry     beta= 0.40
     Davidson diagonalization with overlap

---- Real-time Memory Report at c_bands before calling an iterative solver
          5030 MiB given to the printing process from OS
            52 MiB allocation reported by mallinfo(arena+hblkhd)
         54874 MiB available memory on the node where the printing process lives
     GPU memory used/free/total (MiB): 4546 / 11734 / 16280
------------------
     ethr =  9.49E-06,  avg # of iterations =  1.0

     negative rho (up, down):  0.000E+00 2.577E-04

     total cpu time spent up to now is      764.0 secs

     total energy              =   -2322.89416920 Ry
     estimated scf accuracy    <       0.69204657 Ry

     total magnetization       =    13.18 Bohr mag/cell
     absolute magnetization    =    14.59 Bohr mag/cell
[tb_dev] Currently allocated     7.92E+00 Mbytes, locked:    0 /   9
[tb_pin] Currently allocated     0.00E+00 Mbytes, locked:    0 /   0

     iteration # 67     ecut=    90.00 Ry     beta= 0.40
     Davidson diagonalization with overlap

---- Real-time Memory Report at c_bands before calling an iterative solver
          5053 MiB given to the printing process from OS
            80 MiB allocation reported by mallinfo(arena+hblkhd)
         54846 MiB available memory on the node where the printing process lives
     GPU memory used/free/total (MiB): 4546 / 11734 / 16280
------------------
     ethr =  9.49E-06,  avg # of iterations =  2.5

     negative rho (up, down):  0.000E+00 2.629E-04

     total cpu time spent up to now is      775.7 secs

     total energy              =   -2322.92581502 Ry
     estimated scf accuracy    <       0.15801130 Ry

     total magnetization       =    15.92 Bohr mag/cell
     absolute magnetization    =    15.98 Bohr mag/cell
[tb_dev] Currently allocated     7.92E+00 Mbytes, locked:    0 /   9
[tb_pin] Currently allocated     0.00E+00 Mbytes, locked:    0 /   0

     iteration # 68     ecut=    90.00 Ry     beta= 0.40
     Davidson diagonalization with overlap

---- Real-time Memory Report at c_bands before calling an iterative solver
          5081 MiB given to the printing process from OS
           102 MiB allocation reported by mallinfo(arena+hblkhd)
         54823 MiB available memory on the node where the printing process lives
     GPU memory used/free/total (MiB): 4546 / 11734 / 16280
------------------
     ethr =  9.49E-06,  avg # of iterations =  1.0

     negative rho (up, down):  0.000E+00 2.603E-04

     total cpu time spent up to now is      785.6 secs

     total energy              =   -2322.93043170 Ry
     estimated scf accuracy    <       0.05694249 Ry

     total magnetization       =    15.96 Bohr mag/cell
     absolute magnetization    =    16.02 Bohr mag/cell
[tb_dev] Currently allocated     7.92E+00 Mbytes, locked:    0 /   9
[tb_pin] Currently allocated     0.00E+00 Mbytes, locked:    0 /   0

     iteration # 69     ecut=    90.00 Ry     beta= 0.40
     Davidson diagonalization with overlap

---- Real-time Memory Report at c_bands before calling an iterative solver
          5103 MiB given to the printing process from OS
           129 MiB allocation reported by mallinfo(arena+hblkhd)
         54798 MiB available memory on the node where the printing process lives
     GPU memory used/free/total (MiB): 4546 / 11734 / 16280
------------------
     ethr =  9.49E-06,  avg # of iterations =  1.0

     negative rho (up, down):  0.000E+00 2.666E-04

     total cpu time spent up to now is      795.4 secs

     total energy              =   -2322.91145071 Ry
     estimated scf accuracy    <       0.06021497 Ry

     total magnetization       =    15.35 Bohr mag/cell
     absolute magnetization    =    15.42 Bohr mag/cell
[tb_dev] Currently allocated     7.92E+00 Mbytes, locked:    0 /   9
[tb_pin] Currently allocated     0.00E+00 Mbytes, locked:    0 /   0

     iteration # 70     ecut=    90.00 Ry     beta= 0.40
     Davidson diagonalization with overlap

---- Real-time Memory Report at c_bands before calling an iterative solver
          5129 MiB given to the printing process from OS
           151 MiB allocation reported by mallinfo(arena+hblkhd)
         54776 MiB available memory on the node where the printing process lives
     GPU memory used/free/total (MiB): 4546 / 11734 / 16280
------------------
     ethr =  9.49E-06,  avg # of iterations =  1.5

     negative rho (up, down):  0.000E+00 2.691E-04

     total cpu time spent up to now is      805.7 secs

     total energy              =   -2322.90388924 Ry
     estimated scf accuracy    <       0.06358612 Ry

     total magnetization       =    16.62 Bohr mag/cell
     absolute magnetization    =    16.67 Bohr mag/cell
[tb_dev] Currently allocated     7.92E+00 Mbytes, locked:    0 /   9
[tb_pin] Currently allocated     0.00E+00 Mbytes, locked:    0 /   0

     iteration # 71     ecut=    90.00 Ry     beta= 0.40
     Davidson diagonalization with overlap

---- Real-time Memory Report at c_bands before calling an iterative solver
          5152 MiB given to the printing process from OS
           179 MiB allocation reported by mallinfo(arena+hblkhd)
         54748 MiB available memory on the node where the printing process lives
     GPU memory used/free/total (MiB): 4546 / 11734 / 16280
------------------
     ethr =  9.49E-06,  avg # of iterations =  1.5

     negative rho (up, down):  0.000E+00 2.590E-04

     total cpu time spent up to now is      816.1 secs

     total energy              =   -2322.87091409 Ry
     estimated scf accuracy    <       0.04141086 Ry

     total magnetization       =    17.53 Bohr mag/cell
     absolute magnetization    =    17.57 Bohr mag/cell
[tb_dev] Currently allocated     7.92E+00 Mbytes, locked:    0 /   9
[tb_pin] Currently allocated     0.00E+00 Mbytes, locked:    0 /   0

     iteration # 72     ecut=    90.00 Ry     beta= 0.40
     Davidson diagonalization with overlap

---- Real-time Memory Report at c_bands before calling an iterative solver
          5180 MiB given to the printing process from OS
           202 MiB allocation reported by mallinfo(arena+hblkhd)
         54723 MiB available memory on the node where the printing process lives
     GPU memory used/free/total (MiB): 4546 / 11734 / 16280
------------------
     ethr =  9.49E-06,  avg # of iterations =  3.0

     negative rho (up, down):  0.000E+00 2.605E-04

     total cpu time spent up to now is      828.9 secs

     total energy              =   -2322.91145988 Ry
     estimated scf accuracy    <       1.14166291 Ry

     total magnetization       =    12.52 Bohr mag/cell
     absolute magnetization    =    14.98 Bohr mag/cell
[tb_dev] Currently allocated     7.92E+00 Mbytes, locked:    0 /   9
[tb_pin] Currently allocated     0.00E+00 Mbytes, locked:    0 /   0

     iteration # 73     ecut=    90.00 Ry     beta= 0.40
     Davidson diagonalization with overlap

---- Real-time Memory Report at c_bands before calling an iterative solver
          5203 MiB given to the printing process from OS
           229 MiB allocation reported by mallinfo(arena+hblkhd)
         54696 MiB available memory on the node where the printing process lives
     GPU memory used/free/total (MiB): 4546 / 11734 / 16280
------------------
     ethr =  9.49E-06,  avg # of iterations =  1.9

     negative rho (up, down):  0.000E+00 2.636E-04

     total cpu time spent up to now is      839.6 secs

     total energy              =   -2322.92247143 Ry
     estimated scf accuracy    <       0.24943002 Ry

     total magnetization       =    15.05 Bohr mag/cell
     absolute magnetization    =    15.13 Bohr mag/cell
[tb_dev] Currently allocated     7.92E+00 Mbytes, locked:    0 /   9
[tb_pin] Currently allocated     0.00E+00 Mbytes, locked:    0 /   0

     iteration # 74     ecut=    90.00 Ry     beta= 0.40
     Davidson diagonalization with overlap

---- Real-time Memory Report at c_bands before calling an iterative solver
          5230 MiB given to the printing process from OS
           252 MiB allocation reported by mallinfo(arena+hblkhd)
         54675 MiB available memory on the node where the printing process lives
     GPU memory used/free/total (MiB): 4546 / 11734 / 16280
------------------
     ethr =  9.49E-06,  avg # of iterations =  1.5

     negative rho (up, down):  0.000E+00 2.695E-04

     total cpu time spent up to now is      849.8 secs

     total energy              =   -2322.87227433 Ry
     estimated scf accuracy    <       0.17332654 Ry

     total magnetization       =    16.12 Bohr mag/cell
     absolute magnetization    =    16.18 Bohr mag/cell
[tb_dev] Currently allocated     7.92E+00 Mbytes, locked:    0 /   9
[tb_pin] Currently allocated     0.00E+00 Mbytes, locked:    0 /   0

     iteration # 75     ecut=    90.00 Ry     beta= 0.40
     Davidson diagonalization with overlap

---- Real-time Memory Report at c_bands before calling an iterative solver
          5253 MiB given to the printing process from OS
           274 MiB allocation reported by mallinfo(arena+hblkhd)
         54651 MiB available memory on the node where the printing process lives
     GPU memory used/free/total (MiB): 4546 / 11734 / 16280
------------------
     ethr =  9.49E-06,  avg # of iterations =  2.7

     negative rho (up, down):  0.000E+00 2.691E-04

     total cpu time spent up to now is      861.9 secs

     total energy              =   -2322.90438552 Ry
     estimated scf accuracy    <       0.14373413 Ry

     total magnetization       =    18.39 Bohr mag/cell
     absolute magnetization    =    18.43 Bohr mag/cell
[tb_dev] Currently allocated     7.92E+00 Mbytes, locked:    0 /   9
[tb_pin] Currently allocated     0.00E+00 Mbytes, locked:    0 /   0

     iteration # 76     ecut=    90.00 Ry     beta= 0.40
     Davidson diagonalization with overlap

---- Real-time Memory Report at c_bands before calling an iterative solver
          5276 MiB given to the printing process from OS
           303 MiB allocation reported by mallinfo(arena+hblkhd)
         54623 MiB available memory on the node where the printing process lives
     GPU memory used/free/total (MiB): 4546 / 11734 / 16280
------------------
     ethr =  9.49E-06,  avg # of iterations =  1.0

     negative rho (up, down):  0.000E+00 2.707E-04

     total cpu time spent up to now is      871.8 secs

     total energy              =   -2322.89270415 Ry
     estimated scf accuracy    <       0.14612349 Ry

     total magnetization       =    18.26 Bohr mag/cell
     absolute magnetization    =    18.30 Bohr mag/cell
[tb_dev] Currently allocated     7.92E+00 Mbytes, locked:    0 /   9
[tb_pin] Currently allocated     0.00E+00 Mbytes, locked:    0 /   0

     iteration # 77     ecut=    90.00 Ry     beta= 0.40
     Davidson diagonalization with overlap

---- Real-time Memory Report at c_bands before calling an iterative solver
          5304 MiB given to the printing process from OS
           328 MiB allocation reported by mallinfo(arena+hblkhd)
         54600 MiB available memory on the node where the printing process lives
     GPU memory used/free/total (MiB): 4546 / 11734 / 16280
------------------
     ethr =  9.49E-06,  avg # of iterations =  1.4

     negative rho (up, down):  0.000E+00 2.731E-04

     total cpu time spent up to now is      881.9 secs

     total energy              =   -2322.88639601 Ry
     estimated scf accuracy    <       0.18525383 Ry

     total magnetization       =    19.06 Bohr mag/cell
     absolute magnetization    =    19.09 Bohr mag/cell
[tb_dev] Currently allocated     7.92E+00 Mbytes, locked:    0 /   9
[tb_pin] Currently allocated     0.00E+00 Mbytes, locked:    0 /   0

     iteration # 78     ecut=    90.00 Ry     beta= 0.40
     Davidson diagonalization with overlap

---- Real-time Memory Report at c_bands before calling an iterative solver
          5329 MiB given to the printing process from OS
           353 MiB allocation reported by mallinfo(arena+hblkhd)
         54573 MiB available memory on the node where the printing process lives
     GPU memory used/free/total (MiB): 4546 / 11734 / 16280
------------------
     ethr =  9.49E-06,  avg # of iterations =  1.2

     negative rho (up, down):  0.000E+00 2.685E-04

     total cpu time spent up to now is      891.9 secs

     total energy              =   -2322.89635144 Ry
     estimated scf accuracy    <       0.22021440 Ry

     total magnetization       =    19.66 Bohr mag/cell
     absolute magnetization    =    19.69 Bohr mag/cell
[tb_dev] Currently allocated     7.92E+00 Mbytes, locked:    0 /   9
[tb_pin] Currently allocated     0.00E+00 Mbytes, locked:    0 /   0

     iteration # 79     ecut=    90.00 Ry     beta= 0.40
     Davidson diagonalization with overlap

---- Real-time Memory Report at c_bands before calling an iterative solver
          5354 MiB given to the printing process from OS
           375 MiB allocation reported by mallinfo(arena+hblkhd)
         54550 MiB available memory on the node where the printing process lives
     GPU memory used/free/total (MiB): 4546 / 11734 / 16280
------------------
     ethr =  9.49E-06,  avg # of iterations =  1.5

     negative rho (up, down):  0.000E+00 2.663E-04

     total cpu time spent up to now is      902.3 secs

     total energy              =   -2322.90772187 Ry
     estimated scf accuracy    <       0.14107393 Ry

     total magnetization       =    18.28 Bohr mag/cell
     absolute magnetization    =    18.31 Bohr mag/cell
[tb_dev] Currently allocated     7.92E+00 Mbytes, locked:    0 /   9
[tb_pin] Currently allocated     0.00E+00 Mbytes, locked:    0 /   0

     iteration # 80     ecut=    90.00 Ry     beta= 0.40
     Davidson diagonalization with overlap

---- Real-time Memory Report at c_bands before calling an iterative solver
          5377 MiB given to the printing process from OS
           414 MiB allocation reported by mallinfo(arena+hblkhd)
         54519 MiB available memory on the node where the printing process lives
     GPU memory used/free/total (MiB): 4546 / 11734 / 16280
------------------
     ethr =  9.49E-06,  avg # of iterations =  1.0

     negative rho (up, down):  0.000E+00 2.650E-04

     total cpu time spent up to now is      912.2 secs

     total energy              =   -2322.91277661 Ry
     estimated scf accuracy    <       0.11959346 Ry

     total magnetization       =    17.79 Bohr mag/cell
     absolute magnetization    =    17.83 Bohr mag/cell

     End of self-consistent calculation

     convergence NOT achieved after  80 iterations: stopping

     Writing config to output data dir ./out/aiida.save/
 
     init_run     :     48.71s CPU     12.33s WALL (       1 calls)
     electrons    :   2777.08s CPU    899.04s WALL (       1 calls)

     Called by init_run:
     wfcinit      :      5.27s CPU      6.34s WALL (       1 calls)
                                        6.34s GPU  (       1 calls)
     wfcinit:atom :      0.04s CPU      0.08s WALL (      70 calls)
                                        0.08s GPU  (      70 calls)
     wfcinit:wfcr :      3.08s CPU      3.62s WALL (      70 calls)
                                        3.62s GPU  (      70 calls)
     potinit      :     28.32s CPU      2.61s WALL (       1 calls)
     hinit0       :      8.46s CPU      2.00s WALL (       1 calls)

     Called by electrons:
     c_bands      :    533.44s CPU    566.52s WALL (      80 calls)
     sum_band     :    129.13s CPU    135.18s WALL (      80 calls)
     v_of_rho     :    118.53s CPU     10.74s WALL (      81 calls)
     v_h          :     26.52s CPU      2.42s WALL (      81 calls)
     v_xc         :     91.99s CPU      8.31s WALL (      81 calls)
     newd         :    177.69s CPU     18.62s WALL (      81 calls)
                                       18.62s GPU  (      81 calls)
     PAW_pot      :   1736.12s CPU    158.39s WALL (      81 calls)
     mix_rho      :     71.46s CPU      7.45s WALL (      80 calls)

     Called by c_bands:
     init_us_2    :     18.37s CPU     24.07s WALL (   11270 calls)
     init_us_2:gp :     18.15s CPU     23.85s WALL (   11270 calls)
     cegterg      :    453.99s CPU    478.85s WALL (    5600 calls)

     Called by sum_band:
     sum_band:wei :      0.48s CPU      0.48s WALL (      80 calls)
                                        0.48s GPU  (      80 calls)
     sum_band:loo :    106.32s CPU    111.85s WALL (      80 calls)
                                      111.85s GPU  (      80 calls)
     sum_band:buf :     34.19s CPU     34.96s WALL (    5600 calls)
                                       34.92s GPU  (    5600 calls)
     sum_band:ini :      8.78s CPU     10.61s WALL (    5600 calls)
                                       10.58s GPU  (    5600 calls)
     sum_band:cal :      0.23s CPU      3.95s WALL (    5600 calls)
                                        2.95s GPU  (    5600 calls)
     sum_band:bec :      2.16s CPU      2.31s WALL (    5600 calls)
                                        2.27s GPU  (    5600 calls)
     addusdens    :     14.05s CPU     14.42s WALL (      80 calls)
                                       14.42s GPU  (      80 calls)
     addusd:skk   :      0.08s CPU      0.08s WALL (     240 calls)
                                        0.08s GPU  (     240 calls)

     Called by *egterg:
     cdiaghg      :    113.07s CPU    131.81s WALL (   17457 calls)
                                      131.69s GPU  (   17457 calls)
     cegterg:over :      8.97s CPU      9.32s WALL (   11857 calls)
     cegterg:upda :     13.55s CPU     14.15s WALL (   11857 calls)
     cegterg:last :      8.82s CPU      8.98s WALL (    9422 calls)
     h_psi        :    289.14s CPU    294.39s WALL (   17527 calls)
                                      293.90s GPU  (   17527 calls)
     s_psi        :      4.28s CPU     12.12s WALL (   17527 calls)
                                       11.01s GPU  (   17527 calls)
     g_psi        :      0.09s CPU      1.19s WALL (   11857 calls)
                                        1.11s GPU  (   11857 calls)

     Called by h_psi:
     h_psi:calbec :      0.64s CPU      8.17s WALL (   17527 calls)
                                        8.05s GPU  (   17527 calls)
     vloc_psi     :    266.30s CPU    271.01s WALL (   17527 calls)
                                      270.90s GPU  (   17527 calls)
     add_vuspsi   :      5.63s CPU     12.55s WALL (   17527 calls)
                                       12.44s GPU  (   17527 calls)

     General routines
     calbec       :      0.65s CPU      0.67s WALL (   23127 calls)
     fft          :      5.06s CPU      1.19s WALL (    2023 calls)
                                        0.89s GPU  (    1861 calls)
     ffts         :      0.11s CPU      0.08s WALL (     322 calls)
                                        0.02s GPU  (     160 calls)
     fftw         :      3.70s CPU    232.19s WALL (  196274 calls)
                                      230.33s GPU  (  196274 calls)
     interpolate  :     16.95s CPU      1.51s WALL (     162 calls)
     davcio       :      0.05s CPU      0.95s WALL (      88 calls)
 
     Parallel routines

     PAW routines
     PAW_pot      :   1736.12s CPU    158.39s WALL (      81 calls)
     PAW_symme    :      3.63s CPU      0.58s WALL (     161 calls)
 
     PWSCF        :  47m 8.81s CPU  15m13.54s WALL

 
   This run was terminated on:  23:54:40  22Oct2023            

=------------------------------------------------------------------------------=
   JOB DONE.
=------------------------------------------------------------------------------=
