
     Program PWSCF v.7.2 starts on 28Nov2023 at 21:44:33 
        Git branch: develop
        Last git commit: 9055681be6fc8200e6fffe76ed5fda34c2696339
        Last git commit date: Wed Nov 8 16:29:39 2023 +0000
        Last git commit subject: Merge branch 'calbec_fix' into 'develop'

     This program is part of the open-source Quantum ESPRESSO suite
     for quantum simulation of materials; please cite
         "P. Giannozzi et al., J. Phys.:Condens. Matter 21 395502 (2009);
         "P. Giannozzi et al., J. Phys.:Condens. Matter 29 465901 (2017);
         "P. Giannozzi et al., J. Chem. Phys. 152 154105 (2020);
          URL http://www.quantum-espresso.org", 
     in publications or presentations arising from this work. More details at
     http://www.quantum-espresso.org/quote

     Parallel version (MPI), running on    56 processors

     MPI processes distributed on     1 nodes
     488204 MiB available memory on the printing compute node when the environment starts

     Reading input from aiida.in

     Current dimensions of program PWSCF are:
     Max number of different atomic species (ntypx) = 10
     Max number of k-points (npk) =  40000
     Max angular momentum in pseudopotentials (lmaxx) =  4
     file Ba.pbesol-spn-kjpaw_psl.1.0.0.UPF: wavefunction(s)  5S 6S renormalized
     file O.pbesol-n-kjpaw_psl.0.1.UPF: wavefunction(s)  2P renormalized
     Message from routine setup:
     using ibrav=0 with symmetry is DISCOURAGED, use correct ibrav instead

     K-points division:     npool     =       8
     R & G space division:  proc/nbgrp/npool/nimage =       7
     Subspace diagonalization in iterative solution of the eigenvalue problem:
     a serial algorithm will be used


     Parallelization info
     --------------------
     sticks:   dense  smooth     PW     G-vecs:    dense   smooth      PW
     Min         368     183     55                12467     4402     737
     Max         369     184     56                12469     4405     738
     Sum        2579    1285    389                87273    30827    5163

     Using Slab Decomposition



     bravais-lattice index     =            0
     lattice parameter (alat)  =       9.6610  a.u.
     unit-cell volume          =     646.5368 (a.u.)^3
     number of atoms/cell      =            7
     number of atomic types    =            4
     number of electrons       =        42.00
     number of Kohn-Sham states=           25
     kinetic-energy cutoff     =      50.0000  Ry
     charge density cutoff     =     400.0000  Ry
     scf convergence threshold =      1.4E-09
     mixing beta               =       0.4000
     number of iterations used =            8  plain     mixing
     Exchange-correlation= PBESOL
                           (   1   4  10   8   0   0   0)

     celldm(1)=   9.660958  celldm(2)=   0.000000  celldm(3)=   0.000000
     celldm(4)=   0.000000  celldm(5)=   0.000000  celldm(6)=   0.000000

     crystal axes: (cart. coord. in units of alat)
               a(1) = (   0.864043   0.503417   0.000000 )  
               a(2) = (  -0.864043   0.503417   0.000000 )  
               a(3) = (  -0.564878   0.000000   0.824212 )  

     reciprocal axes: (cart. coord. in units 2 pi/alat)
               b(1) = (  0.578675  0.993212  0.396598 )  
               b(2) = ( -0.578675  0.993212 -0.396598 )  
               b(3) = (  0.000000 -0.000000  1.213280 )  


     PseudoPot. # 1 for Ba read from file:
     ./pseudo/Ba.pbesol-spn-kjpaw_psl.1.0.0.UPF
     MD5 check sum: f28c4a63d325c1a0d00fd3a4f19b8d73
     Pseudo is Projector augmented-wave + core cor, Zval = 10.0
     Generated using "atomic" code by A. Dal Corso  v.6.0 svn rev. 13079
     Shape of augmentation charge: PSQ
     Using radial grid of 1251 points,  7 beta functions with: 
                l(1) =   0
                l(2) =   0
                l(3) =   0
                l(4) =   1
                l(5) =   1
                l(6) =   2
                l(7) =   2
     Q(r) pseudized with 0 coefficients 


     PseudoPot. # 2 for Be read from file:
     ./pseudo/be_pbesol_v1.4.uspp.F.UPF
     MD5 check sum: 09f0a726f30643f9a0ebddd893618f5c
     Pseudo is Ultrasoft, Zval =  4.0
     Generated by new atomic code, or converted to UPF format
     Using radial grid of  769 points,  6 beta functions with: 
                l(1) =   0
                l(2) =   0
                l(3) =   0
                l(4) =   1
                l(5) =   1
                l(6) =   2
     Q(r) pseudized with 10 coefficients,  rinner =    1.000   1.000   1.000
                                                       1.000   1.000

     PseudoPot. # 3 for O  read from file:
     ./pseudo/O.pbesol-n-kjpaw_psl.0.1.UPF
     MD5 check sum: 81d73d1479e654e5638b0319f0d6c2c7
     Pseudo is Projector augmented-wave + core cor, Zval =  6.0
     Generated using "atomic" code by A. Dal Corso  v.6.0 svn rev. 13079
     Shape of augmentation charge: BESSEL
     Using radial grid of 1095 points,  4 beta functions with: 
                l(1) =   0
                l(2) =   0
                l(3) =   1
                l(4) =   1
     Q(r) pseudized with 0 coefficients 


     PseudoPot. # 4 for Si read from file:
     ./pseudo/Si.pbesol-n-rrkjus_psl.1.0.0.UPF
     MD5 check sum: c4212819de858c94c3a1644338846ac9
     Pseudo is Ultrasoft + core correction, Zval =  4.0
     Generated using "atomic" code by A. Dal Corso  v.6.0 svn rev. 13079
     Using radial grid of 1141 points,  6 beta functions with: 
                l(1) =   0
                l(2) =   0
                l(3) =   1
                l(4) =   1
                l(5) =   2
                l(6) =   2
     Q(r) pseudized with 0 coefficients 


     atomic species   valence    mass     pseudopotential
     Ba               10.00   137.32700     Ba( 1.00)
     Be                4.00     9.01218     Be( 1.00)
     O                 6.00    15.99940     O ( 1.00)
     Si                4.00    28.08550     Si( 1.00)

     Starting magnetic structure 
     atomic species   magnetization
     Ba              0.100
     Be              0.100
     O               0.100
     Si              0.100

      2 Sym. Ops. (no inversion) found


                                    s                        frac. trans.

      isym =  1     identity                                     

 cryst.   s( 1) = (     1          0          0      )
                  (     0          1          0      )
                  (     0          0          1      )

 cart.    s( 1) = (  1.0000000  0.0000000 -0.0000000 )
                  ( -0.0000000  1.0000000 -0.0000000 )
                  (  0.0000000  0.0000000  1.0000000 )


      isym =  2     inv. 180 deg rotation - cart. axis [0,1,0]   

 cryst.   s( 2) = (     0         -1          0      )
                  (    -1          0          0      )
                  (     0          0          1      )

 cart.    s( 2) = (  1.0000000 -0.0000000 -0.0000000 )
                  ( -0.0000000 -1.0000000 -0.0000000 )
                  (  0.0000000  0.0000000  1.0000000 )


   Cartesian axes

     site n.     atom                  positions (alat units)
         1        Ba     tau(   1) = (   0.0000000   0.0000000  -0.0000000  )
         2        Be     tau(   2) = (   0.0214586  -0.0000000   0.6025814  )
         3        Si     tau(   3) = (   0.5835201  -0.0000000   0.3919128  )
         4        O      tau(   4) = (   0.7614232   0.2485875   0.4661743  )
         5        O      tau(   5) = (   0.7614232   0.7582472   0.4661743  )
         6        O      tau(   6) = (   0.5222028   0.0000000   0.0918172  )
         7        O      tau(   7) = (   0.3271608   0.0000000   0.5687887  )

   Crystallographic axes

     site n.     atom                  positions (cryst. coord.)
         1        Ba     tau(   1) = (  0.0000000  0.0000000  0.0000000  )
         2        Be     tau(   2) = (  0.2514000 -0.2514000  0.7311000  )
         3        Si     tau(   3) = (  0.4931000 -0.4931000  0.4755000  )
         4        O      tau(   4) = (  0.8724000 -0.3786000  0.5656000  )
         5        O      tau(   5) = (  1.3786000  0.1276000  0.5656000  )
         6        O      tau(   6) = (  0.3386000 -0.3386000  0.1114000  )
         7        O      tau(   7) = (  0.4149000 -0.4149000  0.6901000  )

     number of k points=   282  Marzari-Vanderbilt smearing, width (Ry)=  0.0200
                       cart. coord. in units 2pi/alat
        k(    1) = (   0.0000000   0.0000000   0.0000000), wk =   0.0010000
        k(    2) = (   0.0000000   0.0000000   0.1213280), wk =   0.0020000
        k(    3) = (   0.0000000   0.0000000   0.2426560), wk =   0.0020000
        k(    4) = (   0.0000000   0.0000000   0.3639840), wk =   0.0020000
        k(    5) = (   0.0000000   0.0000000   0.4853120), wk =   0.0020000
        k(    6) = (   0.0000000   0.0000000  -0.6066400), wk =   0.0010000
        k(    7) = (  -0.0578675   0.0993212  -0.0396598), wk =   0.0040000
        k(    8) = (  -0.0578675   0.0993212   0.0816682), wk =   0.0040000
        k(    9) = (  -0.0578675   0.0993212   0.2029962), wk =   0.0040000
        k(   10) = (  -0.0578675   0.0993212   0.3243242), wk =   0.0040000
        k(   11) = (  -0.0578675   0.0993212   0.4456522), wk =   0.0040000
        k(   12) = (  -0.0578675   0.0993212  -0.6462998), wk =   0.0040000
        k(   13) = (  -0.0578675   0.0993212  -0.5249718), wk =   0.0040000
        k(   14) = (  -0.0578675   0.0993212  -0.4036438), wk =   0.0040000
        k(   15) = (  -0.0578675   0.0993212  -0.2823158), wk =   0.0040000
        k(   16) = (  -0.0578675   0.0993212  -0.1609878), wk =   0.0040000
        k(   17) = (  -0.1157349   0.1986424  -0.0793196), wk =   0.0040000
        k(   18) = (  -0.1157349   0.1986424   0.0420085), wk =   0.0040000
        k(   19) = (  -0.1157349   0.1986424   0.1633365), wk =   0.0040000
        k(   20) = (  -0.1157349   0.1986424   0.2846645), wk =   0.0040000
        k(   21) = (  -0.1157349   0.1986424   0.4059925), wk =   0.0040000
        k(   22) = (  -0.1157349   0.1986424  -0.6859596), wk =   0.0040000
        k(   23) = (  -0.1157349   0.1986424  -0.5646316), wk =   0.0040000
        k(   24) = (  -0.1157349   0.1986424  -0.4433036), wk =   0.0040000
        k(   25) = (  -0.1157349   0.1986424  -0.3219756), wk =   0.0040000
        k(   26) = (  -0.1157349   0.1986424  -0.2006476), wk =   0.0040000
        k(   27) = (  -0.1736024   0.2979635  -0.1189793), wk =   0.0040000
        k(   28) = (  -0.1736024   0.2979635   0.0023487), wk =   0.0040000
        k(   29) = (  -0.1736024   0.2979635   0.1236767), wk =   0.0040000
        k(   30) = (  -0.1736024   0.2979635   0.2450047), wk =   0.0040000
        k(   31) = (  -0.1736024   0.2979635   0.3663327), wk =   0.0040000
        k(   32) = (  -0.1736024   0.2979635  -0.7256194), wk =   0.0040000
        k(   33) = (  -0.1736024   0.2979635  -0.6042914), wk =   0.0040000
        k(   34) = (  -0.1736024   0.2979635  -0.4829634), wk =   0.0040000
        k(   35) = (  -0.1736024   0.2979635  -0.3616353), wk =   0.0040000
        k(   36) = (  -0.1736024   0.2979635  -0.2403073), wk =   0.0040000
        k(   37) = (  -0.2314699   0.3972847  -0.1586391), wk =   0.0040000
        k(   38) = (  -0.2314699   0.3972847  -0.0373111), wk =   0.0040000
        k(   39) = (  -0.2314699   0.3972847   0.0840169), wk =   0.0040000
        k(   40) = (  -0.2314699   0.3972847   0.2053449), wk =   0.0040000
        k(   41) = (  -0.2314699   0.3972847   0.3266729), wk =   0.0040000
        k(   42) = (  -0.2314699   0.3972847  -0.7652791), wk =   0.0040000
        k(   43) = (  -0.2314699   0.3972847  -0.6439511), wk =   0.0040000
        k(   44) = (  -0.2314699   0.3972847  -0.5226231), wk =   0.0040000
        k(   45) = (  -0.2314699   0.3972847  -0.4012951), wk =   0.0040000
        k(   46) = (  -0.2314699   0.3972847  -0.2799671), wk =   0.0040000
        k(   47) = (   0.2893373  -0.4966059   0.1982989), wk =   0.0020000
        k(   48) = (   0.2893373  -0.4966059   0.3196269), wk =   0.0040000
        k(   49) = (   0.2893373  -0.4966059   0.4409549), wk =   0.0040000
        k(   50) = (   0.2893373  -0.4966059   0.5622829), wk =   0.0040000
        k(   51) = (   0.2893373  -0.4966059   0.6836109), wk =   0.0040000
        k(   52) = (   0.2893373  -0.4966059  -0.4083411), wk =   0.0020000
        k(   53) = (   0.0000000   0.1986424   0.0000000), wk =   0.0020000
        k(   54) = (   0.0000000   0.1986424   0.1213280), wk =   0.0040000
        k(   55) = (   0.0000000   0.1986424   0.2426560), wk =   0.0040000
        k(   56) = (   0.0000000   0.1986424   0.3639840), wk =   0.0040000
        k(   57) = (   0.0000000   0.1986424   0.4853120), wk =   0.0040000
        k(   58) = (   0.0000000   0.1986424  -0.6066400), wk =   0.0020000
        k(   59) = (  -0.0578675   0.2979635  -0.0396598), wk =   0.0040000
        k(   60) = (  -0.0578675   0.2979635   0.0816682), wk =   0.0040000
        k(   61) = (  -0.0578675   0.2979635   0.2029962), wk =   0.0040000
        k(   62) = (  -0.0578675   0.2979635   0.3243242), wk =   0.0040000
        k(   63) = (  -0.0578675   0.2979635   0.4456522), wk =   0.0040000
        k(   64) = (  -0.0578675   0.2979635  -0.6462998), wk =   0.0040000
        k(   65) = (  -0.0578675   0.2979635  -0.5249718), wk =   0.0040000
        k(   66) = (  -0.0578675   0.2979635  -0.4036438), wk =   0.0040000
        k(   67) = (  -0.0578675   0.2979635  -0.2823158), wk =   0.0040000
        k(   68) = (  -0.0578675   0.2979635  -0.1609878), wk =   0.0040000
        k(   69) = (  -0.1157349   0.3972847  -0.0793196), wk =   0.0040000
        k(   70) = (  -0.1157349   0.3972847   0.0420085), wk =   0.0040000
        k(   71) = (  -0.1157349   0.3972847   0.1633365), wk =   0.0040000
        k(   72) = (  -0.1157349   0.3972847   0.2846645), wk =   0.0040000
        k(   73) = (  -0.1157349   0.3972847   0.4059925), wk =   0.0040000
        k(   74) = (  -0.1157349   0.3972847  -0.6859596), wk =   0.0040000
        k(   75) = (  -0.1157349   0.3972847  -0.5646316), wk =   0.0040000
        k(   76) = (  -0.1157349   0.3972847  -0.4433036), wk =   0.0040000
        k(   77) = (  -0.1157349   0.3972847  -0.3219756), wk =   0.0040000
        k(   78) = (  -0.1157349   0.3972847  -0.2006476), wk =   0.0040000
        k(   79) = (  -0.1736024   0.4966059  -0.1189793), wk =   0.0040000
        k(   80) = (  -0.1736024   0.4966059   0.0023487), wk =   0.0040000
        k(   81) = (  -0.1736024   0.4966059   0.1236767), wk =   0.0040000
        k(   82) = (  -0.1736024   0.4966059   0.2450047), wk =   0.0040000
        k(   83) = (  -0.1736024   0.4966059   0.3663327), wk =   0.0040000
        k(   84) = (  -0.1736024   0.4966059  -0.7256194), wk =   0.0040000
        k(   85) = (  -0.1736024   0.4966059  -0.6042914), wk =   0.0040000
        k(   86) = (  -0.1736024   0.4966059  -0.4829634), wk =   0.0040000
        k(   87) = (  -0.1736024   0.4966059  -0.3616353), wk =   0.0040000
        k(   88) = (  -0.1736024   0.4966059  -0.2403073), wk =   0.0040000
        k(   89) = (   0.3472048  -0.3972847   0.2379587), wk =   0.0040000
        k(   90) = (   0.3472048  -0.3972847   0.3592867), wk =   0.0040000
        k(   91) = (   0.3472048  -0.3972847   0.4806147), wk =   0.0040000
        k(   92) = (   0.3472048  -0.3972847   0.6019427), wk =   0.0040000
        k(   93) = (   0.3472048  -0.3972847   0.7232707), wk =   0.0040000
        k(   94) = (   0.3472048  -0.3972847  -0.3686814), wk =   0.0040000
        k(   95) = (   0.3472048  -0.3972847  -0.2473534), wk =   0.0040000
        k(   96) = (   0.3472048  -0.3972847  -0.1260254), wk =   0.0040000
        k(   97) = (   0.3472048  -0.3972847  -0.0046973), wk =   0.0040000
        k(   98) = (   0.3472048  -0.3972847   0.1166307), wk =   0.0040000
        k(   99) = (   0.2893373  -0.2979635   0.1982989), wk =   0.0040000
        k(  100) = (   0.2893373  -0.2979635   0.3196269), wk =   0.0040000
        k(  101) = (   0.2893373  -0.2979635   0.4409549), wk =   0.0040000
        k(  102) = (   0.2893373  -0.2979635   0.5622829), wk =   0.0040000
        k(  103) = (   0.2893373  -0.2979635   0.6836109), wk =   0.0040000
        k(  104) = (   0.2893373  -0.2979635  -0.4083411), wk =   0.0040000
        k(  105) = (   0.2893373  -0.2979635  -0.2870131), wk =   0.0040000
        k(  106) = (   0.2893373  -0.2979635  -0.1656851), wk =   0.0040000
        k(  107) = (   0.2893373  -0.2979635  -0.0443571), wk =   0.0040000
        k(  108) = (   0.2893373  -0.2979635   0.0769709), wk =   0.0040000
        k(  109) = (   0.2314699  -0.1986424   0.1586391), wk =   0.0040000
        k(  110) = (   0.2314699  -0.1986424   0.2799671), wk =   0.0040000
        k(  111) = (   0.2314699  -0.1986424   0.4012951), wk =   0.0040000
        k(  112) = (   0.2314699  -0.1986424   0.5226231), wk =   0.0040000
        k(  113) = (   0.2314699  -0.1986424   0.6439511), wk =   0.0040000
        k(  114) = (   0.2314699  -0.1986424  -0.4480009), wk =   0.0040000
        k(  115) = (   0.2314699  -0.1986424  -0.3266729), wk =   0.0040000
        k(  116) = (   0.2314699  -0.1986424  -0.2053449), wk =   0.0040000
        k(  117) = (   0.2314699  -0.1986424  -0.0840169), wk =   0.0040000
        k(  118) = (   0.2314699  -0.1986424   0.0373111), wk =   0.0040000
        k(  119) = (   0.1736024  -0.0993212   0.1189793), wk =   0.0040000
        k(  120) = (   0.1736024  -0.0993212   0.2403073), wk =   0.0040000
        k(  121) = (   0.1736024  -0.0993212   0.3616353), wk =   0.0040000
        k(  122) = (   0.1736024  -0.0993212   0.4829634), wk =   0.0040000
        k(  123) = (   0.1736024  -0.0993212   0.6042914), wk =   0.0040000
        k(  124) = (   0.1736024  -0.0993212  -0.4876607), wk =   0.0040000
        k(  125) = (   0.1736024  -0.0993212  -0.3663327), wk =   0.0040000
        k(  126) = (   0.1736024  -0.0993212  -0.2450047), wk =   0.0040000
        k(  127) = (   0.1736024  -0.0993212  -0.1236767), wk =   0.0040000
        k(  128) = (   0.1736024  -0.0993212  -0.0023487), wk =   0.0040000
        k(  129) = (   0.1157349   0.0000000   0.0793196), wk =   0.0020000
        k(  130) = (   0.1157349   0.0000000   0.2006476), wk =   0.0020000
        k(  131) = (   0.1157349   0.0000000   0.3219756), wk =   0.0020000
        k(  132) = (   0.1157349   0.0000000   0.4433036), wk =   0.0020000
        k(  133) = (   0.1157349   0.0000000   0.5646316), wk =   0.0020000
        k(  134) = (   0.1157349   0.0000000  -0.5273205), wk =   0.0020000
        k(  135) = (   0.1157349   0.0000000  -0.4059925), wk =   0.0020000
        k(  136) = (   0.1157349   0.0000000  -0.2846645), wk =   0.0020000
        k(  137) = (   0.1157349   0.0000000  -0.1633365), wk =   0.0020000
        k(  138) = (   0.1157349   0.0000000  -0.0420085), wk =   0.0020000
        k(  139) = (   0.0000000   0.3972847   0.0000000), wk =   0.0020000
        k(  140) = (   0.0000000   0.3972847   0.1213280), wk =   0.0040000
        k(  141) = (   0.0000000   0.3972847   0.2426560), wk =   0.0040000
        k(  142) = (   0.0000000   0.3972847   0.3639840), wk =   0.0040000
        k(  143) = (   0.0000000   0.3972847   0.4853120), wk =   0.0040000
        k(  144) = (   0.0000000   0.3972847  -0.6066400), wk =   0.0020000
        k(  145) = (  -0.0578675   0.4966059  -0.0396598), wk =   0.0040000
        k(  146) = (  -0.0578675   0.4966059   0.0816682), wk =   0.0040000
        k(  147) = (  -0.0578675   0.4966059   0.2029962), wk =   0.0040000
        k(  148) = (  -0.0578675   0.4966059   0.3243242), wk =   0.0040000
        k(  149) = (  -0.0578675   0.4966059   0.4456522), wk =   0.0040000
        k(  150) = (  -0.0578675   0.4966059  -0.6462998), wk =   0.0040000
        k(  151) = (  -0.0578675   0.4966059  -0.5249718), wk =   0.0040000
        k(  152) = (  -0.0578675   0.4966059  -0.4036438), wk =   0.0040000
        k(  153) = (  -0.0578675   0.4966059  -0.2823158), wk =   0.0040000
        k(  154) = (  -0.0578675   0.4966059  -0.1609878), wk =   0.0040000
        k(  155) = (  -0.1157349   0.5959271  -0.0793196), wk =   0.0040000
        k(  156) = (  -0.1157349   0.5959271   0.0420085), wk =   0.0040000
        k(  157) = (  -0.1157349   0.5959271   0.1633365), wk =   0.0040000
        k(  158) = (  -0.1157349   0.5959271   0.2846645), wk =   0.0040000
        k(  159) = (  -0.1157349   0.5959271   0.4059925), wk =   0.0040000
        k(  160) = (  -0.1157349   0.5959271  -0.6859596), wk =   0.0040000
        k(  161) = (  -0.1157349   0.5959271  -0.5646316), wk =   0.0040000
        k(  162) = (  -0.1157349   0.5959271  -0.4433036), wk =   0.0040000
        k(  163) = (  -0.1157349   0.5959271  -0.3219756), wk =   0.0040000
        k(  164) = (  -0.1157349   0.5959271  -0.2006476), wk =   0.0040000
        k(  165) = (   0.4050722  -0.2979635   0.2776184), wk =   0.0040000
        k(  166) = (   0.4050722  -0.2979635   0.3989464), wk =   0.0040000
        k(  167) = (   0.4050722  -0.2979635   0.5202745), wk =   0.0040000
        k(  168) = (   0.4050722  -0.2979635   0.6416025), wk =   0.0040000
        k(  169) = (   0.4050722  -0.2979635   0.7629305), wk =   0.0040000
        k(  170) = (   0.4050722  -0.2979635  -0.3290216), wk =   0.0040000
        k(  171) = (   0.4050722  -0.2979635  -0.2076936), wk =   0.0040000
        k(  172) = (   0.4050722  -0.2979635  -0.0863656), wk =   0.0040000
        k(  173) = (   0.4050722  -0.2979635   0.0349624), wk =   0.0040000
        k(  174) = (   0.4050722  -0.2979635   0.1562904), wk =   0.0040000
        k(  175) = (   0.3472048  -0.1986424   0.2379587), wk =   0.0040000
        k(  176) = (   0.3472048  -0.1986424   0.3592867), wk =   0.0040000
        k(  177) = (   0.3472048  -0.1986424   0.4806147), wk =   0.0040000
        k(  178) = (   0.3472048  -0.1986424   0.6019427), wk =   0.0040000
        k(  179) = (   0.3472048  -0.1986424   0.7232707), wk =   0.0040000
        k(  180) = (   0.3472048  -0.1986424  -0.3686814), wk =   0.0040000
        k(  181) = (   0.3472048  -0.1986424  -0.2473534), wk =   0.0040000
        k(  182) = (   0.3472048  -0.1986424  -0.1260254), wk =   0.0040000
        k(  183) = (   0.3472048  -0.1986424  -0.0046973), wk =   0.0040000
        k(  184) = (   0.3472048  -0.1986424   0.1166307), wk =   0.0040000
        k(  185) = (   0.2893373  -0.0993212   0.1982989), wk =   0.0040000
        k(  186) = (   0.2893373  -0.0993212   0.3196269), wk =   0.0040000
        k(  187) = (   0.2893373  -0.0993212   0.4409549), wk =   0.0040000
        k(  188) = (   0.2893373  -0.0993212   0.5622829), wk =   0.0040000
        k(  189) = (   0.2893373  -0.0993212   0.6836109), wk =   0.0040000
        k(  190) = (   0.2893373  -0.0993212  -0.4083411), wk =   0.0040000
        k(  191) = (   0.2893373  -0.0993212  -0.2870131), wk =   0.0040000
        k(  192) = (   0.2893373  -0.0993212  -0.1656851), wk =   0.0040000
        k(  193) = (   0.2893373  -0.0993212  -0.0443571), wk =   0.0040000
        k(  194) = (   0.2893373  -0.0993212   0.0769709), wk =   0.0040000
        k(  195) = (   0.2314699   0.0000000   0.1586391), wk =   0.0020000
        k(  196) = (   0.2314699   0.0000000   0.2799671), wk =   0.0020000
        k(  197) = (   0.2314699   0.0000000   0.4012951), wk =   0.0020000
        k(  198) = (   0.2314699   0.0000000   0.5226231), wk =   0.0020000
        k(  199) = (   0.2314699   0.0000000   0.6439511), wk =   0.0020000
        k(  200) = (   0.2314699   0.0000000  -0.4480009), wk =   0.0020000
        k(  201) = (   0.2314699   0.0000000  -0.3266729), wk =   0.0020000
        k(  202) = (   0.2314699   0.0000000  -0.2053449), wk =   0.0020000
        k(  203) = (   0.2314699   0.0000000  -0.0840169), wk =   0.0020000
        k(  204) = (   0.2314699   0.0000000   0.0373111), wk =   0.0020000
        k(  205) = (   0.0000000   0.5959271  -0.0000000), wk =   0.0020000
        k(  206) = (   0.0000000   0.5959271   0.1213280), wk =   0.0040000
        k(  207) = (   0.0000000   0.5959271   0.2426560), wk =   0.0040000
        k(  208) = (   0.0000000   0.5959271   0.3639840), wk =   0.0040000
        k(  209) = (   0.0000000   0.5959271   0.4853120), wk =   0.0040000
        k(  210) = (   0.0000000   0.5959271  -0.6066400), wk =   0.0020000
        k(  211) = (  -0.0578675   0.6952482  -0.0396598), wk =   0.0040000
        k(  212) = (  -0.0578675   0.6952482   0.0816682), wk =   0.0040000
        k(  213) = (  -0.0578675   0.6952482   0.2029962), wk =   0.0040000
        k(  214) = (  -0.0578675   0.6952482   0.3243242), wk =   0.0040000
        k(  215) = (  -0.0578675   0.6952482   0.4456522), wk =   0.0040000
        k(  216) = (  -0.0578675   0.6952482  -0.6462998), wk =   0.0040000
        k(  217) = (  -0.0578675   0.6952482  -0.5249718), wk =   0.0040000
        k(  218) = (  -0.0578675   0.6952482  -0.4036438), wk =   0.0040000
        k(  219) = (  -0.0578675   0.6952482  -0.2823158), wk =   0.0040000
        k(  220) = (  -0.0578675   0.6952482  -0.1609878), wk =   0.0040000
        k(  221) = (   0.4629397  -0.1986424   0.3172782), wk =   0.0040000
        k(  222) = (   0.4629397  -0.1986424   0.4386062), wk =   0.0040000
        k(  223) = (   0.4629397  -0.1986424   0.5599342), wk =   0.0040000
        k(  224) = (   0.4629397  -0.1986424   0.6812622), wk =   0.0040000
        k(  225) = (   0.4629397  -0.1986424   0.8025902), wk =   0.0040000
        k(  226) = (   0.4629397  -0.1986424  -0.2893618), wk =   0.0040000
        k(  227) = (   0.4629397  -0.1986424  -0.1680338), wk =   0.0040000
        k(  228) = (   0.4629397  -0.1986424  -0.0467058), wk =   0.0040000
        k(  229) = (   0.4629397  -0.1986424   0.0746222), wk =   0.0040000
        k(  230) = (   0.4629397  -0.1986424   0.1959502), wk =   0.0040000
        k(  231) = (   0.4050722  -0.0993212   0.2776184), wk =   0.0040000
        k(  232) = (   0.4050722  -0.0993212   0.3989464), wk =   0.0040000
        k(  233) = (   0.4050722  -0.0993212   0.5202745), wk =   0.0040000
        k(  234) = (   0.4050722  -0.0993212   0.6416025), wk =   0.0040000
        k(  235) = (   0.4050722  -0.0993212   0.7629305), wk =   0.0040000
        k(  236) = (   0.4050722  -0.0993212  -0.3290216), wk =   0.0040000
        k(  237) = (   0.4050722  -0.0993212  -0.2076936), wk =   0.0040000
        k(  238) = (   0.4050722  -0.0993212  -0.0863656), wk =   0.0040000
        k(  239) = (   0.4050722  -0.0993212   0.0349624), wk =   0.0040000
        k(  240) = (   0.4050722  -0.0993212   0.1562904), wk =   0.0040000
        k(  241) = (   0.3472048  -0.0000000   0.2379587), wk =   0.0020000
        k(  242) = (   0.3472048  -0.0000000   0.3592867), wk =   0.0020000
        k(  243) = (   0.3472048  -0.0000000   0.4806147), wk =   0.0020000
        k(  244) = (   0.3472048  -0.0000000   0.6019427), wk =   0.0020000
        k(  245) = (   0.3472048  -0.0000000   0.7232707), wk =   0.0020000
        k(  246) = (   0.3472048  -0.0000000  -0.3686814), wk =   0.0020000
        k(  247) = (   0.3472048  -0.0000000  -0.2473534), wk =   0.0020000
        k(  248) = (   0.3472048  -0.0000000  -0.1260254), wk =   0.0020000
        k(  249) = (   0.3472048  -0.0000000  -0.0046973), wk =   0.0020000
        k(  250) = (   0.3472048  -0.0000000   0.1166307), wk =   0.0020000
        k(  251) = (   0.0000000   0.7945694   0.0000000), wk =   0.0020000
        k(  252) = (   0.0000000   0.7945694   0.1213280), wk =   0.0040000
        k(  253) = (   0.0000000   0.7945694   0.2426560), wk =   0.0040000
        k(  254) = (   0.0000000   0.7945694   0.3639840), wk =   0.0040000
        k(  255) = (   0.0000000   0.7945694   0.4853120), wk =   0.0040000
        k(  256) = (   0.0000000   0.7945694  -0.6066400), wk =   0.0020000
        k(  257) = (   0.5208072  -0.0993212   0.3569380), wk =   0.0040000
        k(  258) = (   0.5208072  -0.0993212   0.4782660), wk =   0.0040000
        k(  259) = (   0.5208072  -0.0993212   0.5995940), wk =   0.0040000
        k(  260) = (   0.5208072  -0.0993212   0.7209220), wk =   0.0040000
        k(  261) = (   0.5208072  -0.0993212   0.8422500), wk =   0.0040000
        k(  262) = (   0.5208072  -0.0993212  -0.2497020), wk =   0.0040000
        k(  263) = (   0.5208072  -0.0993212  -0.1283740), wk =   0.0040000
        k(  264) = (   0.5208072  -0.0993212  -0.0070460), wk =   0.0040000
        k(  265) = (   0.5208072  -0.0993212   0.1142820), wk =   0.0040000
        k(  266) = (   0.5208072  -0.0993212   0.2356100), wk =   0.0040000
        k(  267) = (   0.4629397   0.0000000   0.3172782), wk =   0.0020000
        k(  268) = (   0.4629397   0.0000000   0.4386062), wk =   0.0020000
        k(  269) = (   0.4629397   0.0000000   0.5599342), wk =   0.0020000
        k(  270) = (   0.4629397   0.0000000   0.6812622), wk =   0.0020000
        k(  271) = (   0.4629397   0.0000000   0.8025902), wk =   0.0020000
        k(  272) = (   0.4629397   0.0000000  -0.2893618), wk =   0.0020000
        k(  273) = (   0.4629397   0.0000000  -0.1680338), wk =   0.0020000
        k(  274) = (   0.4629397   0.0000000  -0.0467058), wk =   0.0020000
        k(  275) = (   0.4629397   0.0000000   0.0746222), wk =   0.0020000
        k(  276) = (   0.4629397   0.0000000   0.1959502), wk =   0.0020000
        k(  277) = (   0.0000000  -0.9932118   0.0000000), wk =   0.0010000
        k(  278) = (   0.0000000  -0.9932118   0.1213280), wk =   0.0020000
        k(  279) = (   0.0000000  -0.9932118   0.2426560), wk =   0.0020000
        k(  280) = (   0.0000000  -0.9932118   0.3639840), wk =   0.0020000
        k(  281) = (   0.0000000  -0.9932118   0.4853120), wk =   0.0020000
        k(  282) = (   0.0000000  -0.9932118  -0.6066400), wk =   0.0010000

                       cryst. coord.
        k(    1) = (   0.0000000   0.0000000   0.0000000), wk =   0.0010000
        k(    2) = (   0.0000000   0.0000000   0.1000000), wk =   0.0020000
        k(    3) = (   0.0000000   0.0000000   0.2000000), wk =   0.0020000
        k(    4) = (   0.0000000   0.0000000   0.3000000), wk =   0.0020000
        k(    5) = (   0.0000000   0.0000000   0.4000000), wk =   0.0020000
        k(    6) = (   0.0000000   0.0000000  -0.5000000), wk =   0.0010000
        k(    7) = (   0.0000000   0.1000000   0.0000000), wk =   0.0040000
        k(    8) = (   0.0000000   0.1000000   0.1000000), wk =   0.0040000
        k(    9) = (   0.0000000   0.1000000   0.2000000), wk =   0.0040000
        k(   10) = (   0.0000000   0.1000000   0.3000000), wk =   0.0040000
        k(   11) = (   0.0000000   0.1000000   0.4000000), wk =   0.0040000
        k(   12) = (   0.0000000   0.1000000  -0.5000000), wk =   0.0040000
        k(   13) = (   0.0000000   0.1000000  -0.4000000), wk =   0.0040000
        k(   14) = (   0.0000000   0.1000000  -0.3000000), wk =   0.0040000
        k(   15) = (   0.0000000   0.1000000  -0.2000000), wk =   0.0040000
        k(   16) = (   0.0000000   0.1000000  -0.1000000), wk =   0.0040000
        k(   17) = (   0.0000000   0.2000000   0.0000000), wk =   0.0040000
        k(   18) = (   0.0000000   0.2000000   0.1000000), wk =   0.0040000
        k(   19) = (   0.0000000   0.2000000   0.2000000), wk =   0.0040000
        k(   20) = (   0.0000000   0.2000000   0.3000000), wk =   0.0040000
        k(   21) = (   0.0000000   0.2000000   0.4000000), wk =   0.0040000
        k(   22) = (   0.0000000   0.2000000  -0.5000000), wk =   0.0040000
        k(   23) = (   0.0000000   0.2000000  -0.4000000), wk =   0.0040000
        k(   24) = (   0.0000000   0.2000000  -0.3000000), wk =   0.0040000
        k(   25) = (   0.0000000   0.2000000  -0.2000000), wk =   0.0040000
        k(   26) = (   0.0000000   0.2000000  -0.1000000), wk =   0.0040000
        k(   27) = (   0.0000000   0.3000000   0.0000000), wk =   0.0040000
        k(   28) = (   0.0000000   0.3000000   0.1000000), wk =   0.0040000
        k(   29) = (   0.0000000   0.3000000   0.2000000), wk =   0.0040000
        k(   30) = (   0.0000000   0.3000000   0.3000000), wk =   0.0040000
        k(   31) = (   0.0000000   0.3000000   0.4000000), wk =   0.0040000
        k(   32) = (   0.0000000   0.3000000  -0.5000000), wk =   0.0040000
        k(   33) = (   0.0000000   0.3000000  -0.4000000), wk =   0.0040000
        k(   34) = (   0.0000000   0.3000000  -0.3000000), wk =   0.0040000
        k(   35) = (   0.0000000   0.3000000  -0.2000000), wk =   0.0040000
        k(   36) = (   0.0000000   0.3000000  -0.1000000), wk =   0.0040000
        k(   37) = (   0.0000000   0.4000000   0.0000000), wk =   0.0040000
        k(   38) = (   0.0000000   0.4000000   0.1000000), wk =   0.0040000
        k(   39) = (   0.0000000   0.4000000   0.2000000), wk =   0.0040000
        k(   40) = (   0.0000000   0.4000000   0.3000000), wk =   0.0040000
        k(   41) = (   0.0000000   0.4000000   0.4000000), wk =   0.0040000
        k(   42) = (   0.0000000   0.4000000  -0.5000000), wk =   0.0040000
        k(   43) = (   0.0000000   0.4000000  -0.4000000), wk =   0.0040000
        k(   44) = (   0.0000000   0.4000000  -0.3000000), wk =   0.0040000
        k(   45) = (   0.0000000   0.4000000  -0.2000000), wk =   0.0040000
        k(   46) = (   0.0000000   0.4000000  -0.1000000), wk =   0.0040000
        k(   47) = (  -0.0000000  -0.5000000  -0.0000000), wk =   0.0020000
        k(   48) = (  -0.0000000  -0.5000000   0.1000000), wk =   0.0040000
        k(   49) = (  -0.0000000  -0.5000000   0.2000000), wk =   0.0040000
        k(   50) = (  -0.0000000  -0.5000000   0.3000000), wk =   0.0040000
        k(   51) = (  -0.0000000  -0.5000000   0.4000000), wk =   0.0040000
        k(   52) = (  -0.0000000  -0.5000000  -0.5000000), wk =   0.0020000
        k(   53) = (   0.1000000   0.1000000   0.0000000), wk =   0.0020000
        k(   54) = (   0.1000000   0.1000000   0.1000000), wk =   0.0040000
        k(   55) = (   0.1000000   0.1000000   0.2000000), wk =   0.0040000
        k(   56) = (   0.1000000   0.1000000   0.3000000), wk =   0.0040000
        k(   57) = (   0.1000000   0.1000000   0.4000000), wk =   0.0040000
        k(   58) = (   0.1000000   0.1000000  -0.5000000), wk =   0.0020000
        k(   59) = (   0.1000000   0.2000000   0.0000000), wk =   0.0040000
        k(   60) = (   0.1000000   0.2000000   0.1000000), wk =   0.0040000
        k(   61) = (   0.1000000   0.2000000   0.2000000), wk =   0.0040000
        k(   62) = (   0.1000000   0.2000000   0.3000000), wk =   0.0040000
        k(   63) = (   0.1000000   0.2000000   0.4000000), wk =   0.0040000
        k(   64) = (   0.1000000   0.2000000  -0.5000000), wk =   0.0040000
        k(   65) = (   0.1000000   0.2000000  -0.4000000), wk =   0.0040000
        k(   66) = (   0.1000000   0.2000000  -0.3000000), wk =   0.0040000
        k(   67) = (   0.1000000   0.2000000  -0.2000000), wk =   0.0040000
        k(   68) = (   0.1000000   0.2000000  -0.1000000), wk =   0.0040000
        k(   69) = (   0.1000000   0.3000000   0.0000000), wk =   0.0040000
        k(   70) = (   0.1000000   0.3000000   0.1000000), wk =   0.0040000
        k(   71) = (   0.1000000   0.3000000   0.2000000), wk =   0.0040000
        k(   72) = (   0.1000000   0.3000000   0.3000000), wk =   0.0040000
        k(   73) = (   0.1000000   0.3000000   0.4000000), wk =   0.0040000
        k(   74) = (   0.1000000   0.3000000  -0.5000000), wk =   0.0040000
        k(   75) = (   0.1000000   0.3000000  -0.4000000), wk =   0.0040000
        k(   76) = (   0.1000000   0.3000000  -0.3000000), wk =   0.0040000
        k(   77) = (   0.1000000   0.3000000  -0.2000000), wk =   0.0040000
        k(   78) = (   0.1000000   0.3000000  -0.1000000), wk =   0.0040000
        k(   79) = (   0.1000000   0.4000000   0.0000000), wk =   0.0040000
        k(   80) = (   0.1000000   0.4000000   0.1000000), wk =   0.0040000
        k(   81) = (   0.1000000   0.4000000   0.2000000), wk =   0.0040000
        k(   82) = (   0.1000000   0.4000000   0.3000000), wk =   0.0040000
        k(   83) = (   0.1000000   0.4000000   0.4000000), wk =   0.0040000
        k(   84) = (   0.1000000   0.4000000  -0.5000000), wk =   0.0040000
        k(   85) = (   0.1000000   0.4000000  -0.4000000), wk =   0.0040000
        k(   86) = (   0.1000000   0.4000000  -0.3000000), wk =   0.0040000
        k(   87) = (   0.1000000   0.4000000  -0.2000000), wk =   0.0040000
        k(   88) = (   0.1000000   0.4000000  -0.1000000), wk =   0.0040000
        k(   89) = (   0.1000000  -0.5000000  -0.0000000), wk =   0.0040000
        k(   90) = (   0.1000000  -0.5000000   0.1000000), wk =   0.0040000
        k(   91) = (   0.1000000  -0.5000000   0.2000000), wk =   0.0040000
        k(   92) = (   0.1000000  -0.5000000   0.3000000), wk =   0.0040000
        k(   93) = (   0.1000000  -0.5000000   0.4000000), wk =   0.0040000
        k(   94) = (   0.1000000  -0.5000000  -0.5000000), wk =   0.0040000
        k(   95) = (   0.1000000  -0.5000000  -0.4000000), wk =   0.0040000
        k(   96) = (   0.1000000  -0.5000000  -0.3000000), wk =   0.0040000
        k(   97) = (   0.1000000  -0.5000000  -0.2000000), wk =   0.0040000
        k(   98) = (   0.1000000  -0.5000000  -0.1000000), wk =   0.0040000
        k(   99) = (   0.1000000  -0.4000000  -0.0000000), wk =   0.0040000
        k(  100) = (   0.1000000  -0.4000000   0.1000000), wk =   0.0040000
        k(  101) = (   0.1000000  -0.4000000   0.2000000), wk =   0.0040000
        k(  102) = (   0.1000000  -0.4000000   0.3000000), wk =   0.0040000
        k(  103) = (   0.1000000  -0.4000000   0.4000000), wk =   0.0040000
        k(  104) = (   0.1000000  -0.4000000  -0.5000000), wk =   0.0040000
        k(  105) = (   0.1000000  -0.4000000  -0.4000000), wk =   0.0040000
        k(  106) = (   0.1000000  -0.4000000  -0.3000000), wk =   0.0040000
        k(  107) = (   0.1000000  -0.4000000  -0.2000000), wk =   0.0040000
        k(  108) = (   0.1000000  -0.4000000  -0.1000000), wk =   0.0040000
        k(  109) = (   0.1000000  -0.3000000  -0.0000000), wk =   0.0040000
        k(  110) = (   0.1000000  -0.3000000   0.1000000), wk =   0.0040000
        k(  111) = (   0.1000000  -0.3000000   0.2000000), wk =   0.0040000
        k(  112) = (   0.1000000  -0.3000000   0.3000000), wk =   0.0040000
        k(  113) = (   0.1000000  -0.3000000   0.4000000), wk =   0.0040000
        k(  114) = (   0.1000000  -0.3000000  -0.5000000), wk =   0.0040000
        k(  115) = (   0.1000000  -0.3000000  -0.4000000), wk =   0.0040000
        k(  116) = (   0.1000000  -0.3000000  -0.3000000), wk =   0.0040000
        k(  117) = (   0.1000000  -0.3000000  -0.2000000), wk =   0.0040000
        k(  118) = (   0.1000000  -0.3000000  -0.1000000), wk =   0.0040000
        k(  119) = (   0.1000000  -0.2000000  -0.0000000), wk =   0.0040000
        k(  120) = (   0.1000000  -0.2000000   0.1000000), wk =   0.0040000
        k(  121) = (   0.1000000  -0.2000000   0.2000000), wk =   0.0040000
        k(  122) = (   0.1000000  -0.2000000   0.3000000), wk =   0.0040000
        k(  123) = (   0.1000000  -0.2000000   0.4000000), wk =   0.0040000
        k(  124) = (   0.1000000  -0.2000000  -0.5000000), wk =   0.0040000
        k(  125) = (   0.1000000  -0.2000000  -0.4000000), wk =   0.0040000
        k(  126) = (   0.1000000  -0.2000000  -0.3000000), wk =   0.0040000
        k(  127) = (   0.1000000  -0.2000000  -0.2000000), wk =   0.0040000
        k(  128) = (   0.1000000  -0.2000000  -0.1000000), wk =   0.0040000
        k(  129) = (   0.1000000  -0.1000000  -0.0000000), wk =   0.0020000
        k(  130) = (   0.1000000  -0.1000000   0.1000000), wk =   0.0020000
        k(  131) = (   0.1000000  -0.1000000   0.2000000), wk =   0.0020000
        k(  132) = (   0.1000000  -0.1000000   0.3000000), wk =   0.0020000
        k(  133) = (   0.1000000  -0.1000000   0.4000000), wk =   0.0020000
        k(  134) = (   0.1000000  -0.1000000  -0.5000000), wk =   0.0020000
        k(  135) = (   0.1000000  -0.1000000  -0.4000000), wk =   0.0020000
        k(  136) = (   0.1000000  -0.1000000  -0.3000000), wk =   0.0020000
        k(  137) = (   0.1000000  -0.1000000  -0.2000000), wk =   0.0020000
        k(  138) = (   0.1000000  -0.1000000  -0.1000000), wk =   0.0020000
        k(  139) = (   0.2000000   0.2000000   0.0000000), wk =   0.0020000
        k(  140) = (   0.2000000   0.2000000   0.1000000), wk =   0.0040000
        k(  141) = (   0.2000000   0.2000000   0.2000000), wk =   0.0040000
        k(  142) = (   0.2000000   0.2000000   0.3000000), wk =   0.0040000
        k(  143) = (   0.2000000   0.2000000   0.4000000), wk =   0.0040000
        k(  144) = (   0.2000000   0.2000000  -0.5000000), wk =   0.0020000
        k(  145) = (   0.2000000   0.3000000  -0.0000000), wk =   0.0040000
        k(  146) = (   0.2000000   0.3000000   0.1000000), wk =   0.0040000
        k(  147) = (   0.2000000   0.3000000   0.2000000), wk =   0.0040000
        k(  148) = (   0.2000000   0.3000000   0.3000000), wk =   0.0040000
        k(  149) = (   0.2000000   0.3000000   0.4000000), wk =   0.0040000
        k(  150) = (   0.2000000   0.3000000  -0.5000000), wk =   0.0040000
        k(  151) = (   0.2000000   0.3000000  -0.4000000), wk =   0.0040000
        k(  152) = (   0.2000000   0.3000000  -0.3000000), wk =   0.0040000
        k(  153) = (   0.2000000   0.3000000  -0.2000000), wk =   0.0040000
        k(  154) = (   0.2000000   0.3000000  -0.1000000), wk =   0.0040000
        k(  155) = (   0.2000000   0.4000000   0.0000000), wk =   0.0040000
        k(  156) = (   0.2000000   0.4000000   0.1000000), wk =   0.0040000
        k(  157) = (   0.2000000   0.4000000   0.2000000), wk =   0.0040000
        k(  158) = (   0.2000000   0.4000000   0.3000000), wk =   0.0040000
        k(  159) = (   0.2000000   0.4000000   0.4000000), wk =   0.0040000
        k(  160) = (   0.2000000   0.4000000  -0.5000000), wk =   0.0040000
        k(  161) = (   0.2000000   0.4000000  -0.4000000), wk =   0.0040000
        k(  162) = (   0.2000000   0.4000000  -0.3000000), wk =   0.0040000
        k(  163) = (   0.2000000   0.4000000  -0.2000000), wk =   0.0040000
        k(  164) = (   0.2000000   0.4000000  -0.1000000), wk =   0.0040000
        k(  165) = (   0.2000000  -0.5000000  -0.0000000), wk =   0.0040000
        k(  166) = (   0.2000000  -0.5000000   0.1000000), wk =   0.0040000
        k(  167) = (   0.2000000  -0.5000000   0.2000000), wk =   0.0040000
        k(  168) = (   0.2000000  -0.5000000   0.3000000), wk =   0.0040000
        k(  169) = (   0.2000000  -0.5000000   0.4000000), wk =   0.0040000
        k(  170) = (   0.2000000  -0.5000000  -0.5000000), wk =   0.0040000
        k(  171) = (   0.2000000  -0.5000000  -0.4000000), wk =   0.0040000
        k(  172) = (   0.2000000  -0.5000000  -0.3000000), wk =   0.0040000
        k(  173) = (   0.2000000  -0.5000000  -0.2000000), wk =   0.0040000
        k(  174) = (   0.2000000  -0.5000000  -0.1000000), wk =   0.0040000
        k(  175) = (   0.2000000  -0.4000000  -0.0000000), wk =   0.0040000
        k(  176) = (   0.2000000  -0.4000000   0.1000000), wk =   0.0040000
        k(  177) = (   0.2000000  -0.4000000   0.2000000), wk =   0.0040000
        k(  178) = (   0.2000000  -0.4000000   0.3000000), wk =   0.0040000
        k(  179) = (   0.2000000  -0.4000000   0.4000000), wk =   0.0040000
        k(  180) = (   0.2000000  -0.4000000  -0.5000000), wk =   0.0040000
        k(  181) = (   0.2000000  -0.4000000  -0.4000000), wk =   0.0040000
        k(  182) = (   0.2000000  -0.4000000  -0.3000000), wk =   0.0040000
        k(  183) = (   0.2000000  -0.4000000  -0.2000000), wk =   0.0040000
        k(  184) = (   0.2000000  -0.4000000  -0.1000000), wk =   0.0040000
        k(  185) = (   0.2000000  -0.3000000  -0.0000000), wk =   0.0040000
        k(  186) = (   0.2000000  -0.3000000   0.1000000), wk =   0.0040000
        k(  187) = (   0.2000000  -0.3000000   0.2000000), wk =   0.0040000
        k(  188) = (   0.2000000  -0.3000000   0.3000000), wk =   0.0040000
        k(  189) = (   0.2000000  -0.3000000   0.4000000), wk =   0.0040000
        k(  190) = (   0.2000000  -0.3000000  -0.5000000), wk =   0.0040000
        k(  191) = (   0.2000000  -0.3000000  -0.4000000), wk =   0.0040000
        k(  192) = (   0.2000000  -0.3000000  -0.3000000), wk =   0.0040000
        k(  193) = (   0.2000000  -0.3000000  -0.2000000), wk =   0.0040000
        k(  194) = (   0.2000000  -0.3000000  -0.1000000), wk =   0.0040000
        k(  195) = (   0.2000000  -0.2000000  -0.0000000), wk =   0.0020000
        k(  196) = (   0.2000000  -0.2000000   0.1000000), wk =   0.0020000
        k(  197) = (   0.2000000  -0.2000000   0.2000000), wk =   0.0020000
        k(  198) = (   0.2000000  -0.2000000   0.3000000), wk =   0.0020000
        k(  199) = (   0.2000000  -0.2000000   0.4000000), wk =   0.0020000
        k(  200) = (   0.2000000  -0.2000000  -0.5000000), wk =   0.0020000
        k(  201) = (   0.2000000  -0.2000000  -0.4000000), wk =   0.0020000
        k(  202) = (   0.2000000  -0.2000000  -0.3000000), wk =   0.0020000
        k(  203) = (   0.2000000  -0.2000000  -0.2000000), wk =   0.0020000
        k(  204) = (   0.2000000  -0.2000000  -0.1000000), wk =   0.0020000
        k(  205) = (   0.3000000   0.3000000  -0.0000000), wk =   0.0020000
        k(  206) = (   0.3000000   0.3000000   0.1000000), wk =   0.0040000
        k(  207) = (   0.3000000   0.3000000   0.2000000), wk =   0.0040000
        k(  208) = (   0.3000000   0.3000000   0.3000000), wk =   0.0040000
        k(  209) = (   0.3000000   0.3000000   0.4000000), wk =   0.0040000
        k(  210) = (   0.3000000   0.3000000  -0.5000000), wk =   0.0020000
        k(  211) = (   0.3000000   0.4000000   0.0000000), wk =   0.0040000
        k(  212) = (   0.3000000   0.4000000   0.1000000), wk =   0.0040000
        k(  213) = (   0.3000000   0.4000000   0.2000000), wk =   0.0040000
        k(  214) = (   0.3000000   0.4000000   0.3000000), wk =   0.0040000
        k(  215) = (   0.3000000   0.4000000   0.4000000), wk =   0.0040000
        k(  216) = (   0.3000000   0.4000000  -0.5000000), wk =   0.0040000
        k(  217) = (   0.3000000   0.4000000  -0.4000000), wk =   0.0040000
        k(  218) = (   0.3000000   0.4000000  -0.3000000), wk =   0.0040000
        k(  219) = (   0.3000000   0.4000000  -0.2000000), wk =   0.0040000
        k(  220) = (   0.3000000   0.4000000  -0.1000000), wk =   0.0040000
        k(  221) = (   0.3000000  -0.5000000  -0.0000000), wk =   0.0040000
        k(  222) = (   0.3000000  -0.5000000   0.1000000), wk =   0.0040000
        k(  223) = (   0.3000000  -0.5000000   0.2000000), wk =   0.0040000
        k(  224) = (   0.3000000  -0.5000000   0.3000000), wk =   0.0040000
        k(  225) = (   0.3000000  -0.5000000   0.4000000), wk =   0.0040000
        k(  226) = (   0.3000000  -0.5000000  -0.5000000), wk =   0.0040000
        k(  227) = (   0.3000000  -0.5000000  -0.4000000), wk =   0.0040000
        k(  228) = (   0.3000000  -0.5000000  -0.3000000), wk =   0.0040000
        k(  229) = (   0.3000000  -0.5000000  -0.2000000), wk =   0.0040000
        k(  230) = (   0.3000000  -0.5000000  -0.1000000), wk =   0.0040000
        k(  231) = (   0.3000000  -0.4000000  -0.0000000), wk =   0.0040000
        k(  232) = (   0.3000000  -0.4000000   0.1000000), wk =   0.0040000
        k(  233) = (   0.3000000  -0.4000000   0.2000000), wk =   0.0040000
        k(  234) = (   0.3000000  -0.4000000   0.3000000), wk =   0.0040000
        k(  235) = (   0.3000000  -0.4000000   0.4000000), wk =   0.0040000
        k(  236) = (   0.3000000  -0.4000000  -0.5000000), wk =   0.0040000
        k(  237) = (   0.3000000  -0.4000000  -0.4000000), wk =   0.0040000
        k(  238) = (   0.3000000  -0.4000000  -0.3000000), wk =   0.0040000
        k(  239) = (   0.3000000  -0.4000000  -0.2000000), wk =   0.0040000
        k(  240) = (   0.3000000  -0.4000000  -0.1000000), wk =   0.0040000
        k(  241) = (   0.3000000  -0.3000000  -0.0000000), wk =   0.0020000
        k(  242) = (   0.3000000  -0.3000000   0.1000000), wk =   0.0020000
        k(  243) = (   0.3000000  -0.3000000   0.2000000), wk =   0.0020000
        k(  244) = (   0.3000000  -0.3000000   0.3000000), wk =   0.0020000
        k(  245) = (   0.3000000  -0.3000000   0.4000000), wk =   0.0020000
        k(  246) = (   0.3000000  -0.3000000  -0.5000000), wk =   0.0020000
        k(  247) = (   0.3000000  -0.3000000  -0.4000000), wk =   0.0020000
        k(  248) = (   0.3000000  -0.3000000  -0.3000000), wk =   0.0020000
        k(  249) = (   0.3000000  -0.3000000  -0.2000000), wk =   0.0020000
        k(  250) = (   0.3000000  -0.3000000  -0.1000000), wk =   0.0020000
        k(  251) = (   0.4000000   0.4000000   0.0000000), wk =   0.0020000
        k(  252) = (   0.4000000   0.4000000   0.1000000), wk =   0.0040000
        k(  253) = (   0.4000000   0.4000000   0.2000000), wk =   0.0040000
        k(  254) = (   0.4000000   0.4000000   0.3000000), wk =   0.0040000
        k(  255) = (   0.4000000   0.4000000   0.4000000), wk =   0.0040000
        k(  256) = (   0.4000000   0.4000000  -0.5000000), wk =   0.0020000
        k(  257) = (   0.4000000  -0.5000000  -0.0000000), wk =   0.0040000
        k(  258) = (   0.4000000  -0.5000000   0.1000000), wk =   0.0040000
        k(  259) = (   0.4000000  -0.5000000   0.2000000), wk =   0.0040000
        k(  260) = (   0.4000000  -0.5000000   0.3000000), wk =   0.0040000
        k(  261) = (   0.4000000  -0.5000000   0.4000000), wk =   0.0040000
        k(  262) = (   0.4000000  -0.5000000  -0.5000000), wk =   0.0040000
        k(  263) = (   0.4000000  -0.5000000  -0.4000000), wk =   0.0040000
        k(  264) = (   0.4000000  -0.5000000  -0.3000000), wk =   0.0040000
        k(  265) = (   0.4000000  -0.5000000  -0.2000000), wk =   0.0040000
        k(  266) = (   0.4000000  -0.5000000  -0.1000000), wk =   0.0040000
        k(  267) = (   0.4000000  -0.4000000  -0.0000000), wk =   0.0020000
        k(  268) = (   0.4000000  -0.4000000   0.1000000), wk =   0.0020000
        k(  269) = (   0.4000000  -0.4000000   0.2000000), wk =   0.0020000
        k(  270) = (   0.4000000  -0.4000000   0.3000000), wk =   0.0020000
        k(  271) = (   0.4000000  -0.4000000   0.4000000), wk =   0.0020000
        k(  272) = (   0.4000000  -0.4000000  -0.5000000), wk =   0.0020000
        k(  273) = (   0.4000000  -0.4000000  -0.4000000), wk =   0.0020000
        k(  274) = (   0.4000000  -0.4000000  -0.3000000), wk =   0.0020000
        k(  275) = (   0.4000000  -0.4000000  -0.2000000), wk =   0.0020000
        k(  276) = (   0.4000000  -0.4000000  -0.1000000), wk =   0.0020000
        k(  277) = (  -0.5000000  -0.5000000   0.0000000), wk =   0.0010000
        k(  278) = (  -0.5000000  -0.5000000   0.1000000), wk =   0.0020000
        k(  279) = (  -0.5000000  -0.5000000   0.2000000), wk =   0.0020000
        k(  280) = (  -0.5000000  -0.5000000   0.3000000), wk =   0.0020000
        k(  281) = (  -0.5000000  -0.5000000   0.4000000), wk =   0.0020000
        k(  282) = (  -0.5000000  -0.5000000  -0.5000000), wk =   0.0010000

     Dense  grid:    87273 G-vectors     FFT dimensions: (  64,  64,  64)

     Smooth grid:    30827 G-vectors     FFT dimensions: (  45,  45,  45)

     Dynamical RAM for                 wfc:       0.21 MB

     Dynamical RAM for     wfc (w. buffer):      15.13 MB

     Dynamical RAM for           str. fact:       0.76 MB

     Dynamical RAM for           local pot:       0.00 MB

     Dynamical RAM for          nlocal pot:       0.70 MB

     Dynamical RAM for                qrad:       8.56 MB

     Dynamical RAM for          rho,v,vnew:       3.02 MB

     Dynamical RAM for               rhoin:       1.01 MB

     Dynamical RAM for            rho*nmix:       6.09 MB

     Dynamical RAM for           G-vectors:       0.75 MB

     Dynamical RAM for          h,s,v(r/c):       0.11 MB

     Dynamical RAM for          <psi|beta>:       0.03 MB

     Dynamical RAM for                 psi:       0.42 MB

     Dynamical RAM for                hpsi:       0.42 MB

     Dynamical RAM for                spsi:       0.42 MB

     Dynamical RAM for      wfcinit/wfcrot:       0.53 MB

     Dynamical RAM for           addusdens:       5.33 MB

     Dynamical RAM for          addusforce:       5.34 MB

     Dynamical RAM for         addusstress:       5.43 MB

     Estimated static dynamical RAM per process >      32.75 MB

     Estimated max dynamical RAM per process >      44.27 MB

     Estimated total dynamical RAM >       2.13 GB

     Check: negative core charge=   -0.000002
     Generating pointlists ...
     new r_m :   0.2187 (alat units)  2.1130 (a.u.) for type    1
     new r_m :   0.1269 (alat units)  1.2257 (a.u.) for type    2
     new r_m :   0.1263 (alat units)  1.2206 (a.u.) for type    3
     new r_m :   0.1263 (alat units)  1.2206 (a.u.) for type    4

     Initial potential from superposition of free atoms

     starting charge      41.9836, renormalised to      42.0000
     Starting wfcs are   30 randomized atomic wfcs
     Checking if some PAW data can be deallocated... 
       PAW data deallocated on   48 nodes for type:  1
       PAW data deallocated on   24 nodes for type:  3

     total cpu time spent up to now is        2.8 secs

     per-process dynamical memory:    54.4 Mb

     Self-consistent Calculation

     iteration #  1     ecut=    50.00 Ry     beta= 0.40
     Davidson diagonalization with overlap

---- Real-time Memory Report at c_bands before calling an iterative solver
            88 MiB given to the printing process from OS
            53 MiB allocation reported by mallinfo(arena+hblkhd)
        485473 MiB available memory on the node where the printing process lives
------------------
     ethr =  1.00E-02,  avg # of iterations =  6.1

     negative rho (up, down):  1.023E+00 1.544E-01

     total cpu time spent up to now is        7.0 secs

     total energy              =    -634.13774069 Ry
     estimated scf accuracy    <      18.40978553 Ry

     total magnetization       =    -0.00 Bohr mag/cell
     absolute magnetization    =     7.60 Bohr mag/cell

     iteration #  2     ecut=    50.00 Ry     beta= 0.40
     Davidson diagonalization with overlap

---- Real-time Memory Report at c_bands before calling an iterative solver
           107 MiB given to the printing process from OS
            54 MiB allocation reported by mallinfo(arena+hblkhd)
        484846 MiB available memory on the node where the printing process lives
------------------
     ethr =  1.00E-02,  avg # of iterations =  3.7

     negative rho (up, down):  9.708E-01 3.152E-01

     total cpu time spent up to now is        9.9 secs

     total energy              =    -634.67815767 Ry
     estimated scf accuracy    <       3.72526415 Ry

     total magnetization       =    -0.00 Bohr mag/cell
     absolute magnetization    =     2.06 Bohr mag/cell

     iteration #  3     ecut=    50.00 Ry     beta= 0.40
     Davidson diagonalization with overlap

---- Real-time Memory Report at c_bands before calling an iterative solver
           108 MiB given to the printing process from OS
            55 MiB allocation reported by mallinfo(arena+hblkhd)
        484833 MiB available memory on the node where the printing process lives
------------------
     ethr =  8.87E-03,  avg # of iterations =  1.5

     negative rho (up, down):  9.914E-01 6.607E-01

     total cpu time spent up to now is       12.3 secs

     total energy              =    -634.70576874 Ry
     estimated scf accuracy    <       1.28379541 Ry

     total magnetization       =    -0.00 Bohr mag/cell
     absolute magnetization    =     1.31 Bohr mag/cell

     iteration #  4     ecut=    50.00 Ry     beta= 0.40
     Davidson diagonalization with overlap

---- Real-time Memory Report at c_bands before calling an iterative solver
           109 MiB given to the printing process from OS
            55 MiB allocation reported by mallinfo(arena+hblkhd)
        484823 MiB available memory on the node where the printing process lives
------------------
     ethr =  3.06E-03,  avg # of iterations =  1.7

     negative rho (up, down):  9.710E-01 6.900E-01

     total cpu time spent up to now is       14.7 secs

     total energy              =    -634.73536807 Ry
     estimated scf accuracy    <       0.13953772 Ry

     total magnetization       =    -0.00 Bohr mag/cell
     absolute magnetization    =     1.28 Bohr mag/cell

     iteration #  5     ecut=    50.00 Ry     beta= 0.40
     Davidson diagonalization with overlap

---- Real-time Memory Report at c_bands before calling an iterative solver
           109 MiB given to the printing process from OS
            55 MiB allocation reported by mallinfo(arena+hblkhd)
        484817 MiB available memory on the node where the printing process lives
------------------
     ethr =  3.32E-04,  avg # of iterations =  4.6

     negative rho (up, down):  9.585E-01 8.049E-01

     total cpu time spent up to now is       17.8 secs

     total energy              =    -634.74234134 Ry
     estimated scf accuracy    <       0.09895336 Ry

     total magnetization       =    -0.00 Bohr mag/cell
     absolute magnetization    =     1.40 Bohr mag/cell

     iteration #  6     ecut=    50.00 Ry     beta= 0.40
     Davidson diagonalization with overlap

---- Real-time Memory Report at c_bands before calling an iterative solver
           110 MiB given to the printing process from OS
            56 MiB allocation reported by mallinfo(arena+hblkhd)
        484808 MiB available memory on the node where the printing process lives
------------------
     ethr =  2.36E-04,  avg # of iterations =  5.0

     negative rho (up, down):  9.527E-01 8.587E-01

     total cpu time spent up to now is       20.9 secs

     total energy              =    -634.78055716 Ry
     estimated scf accuracy    <       4.68728840 Ry

     total magnetization       =    -0.00 Bohr mag/cell
     absolute magnetization    =     3.59 Bohr mag/cell

     iteration #  7     ecut=    50.00 Ry     beta= 0.40
     Davidson diagonalization with overlap

---- Real-time Memory Report at c_bands before calling an iterative solver
           110 MiB given to the printing process from OS
            56 MiB allocation reported by mallinfo(arena+hblkhd)
        484830 MiB available memory on the node where the printing process lives
------------------
     ethr =  2.36E-04,  avg # of iterations =  3.3

     negative rho (up, down):  9.666E-01 8.630E-01

     total cpu time spent up to now is       23.7 secs

     total energy              =    -634.77675487 Ry
     estimated scf accuracy    <       3.40686554 Ry

     total magnetization       =     0.00 Bohr mag/cell
     absolute magnetization    =     2.20 Bohr mag/cell

     iteration #  8     ecut=    50.00 Ry     beta= 0.40
     Davidson diagonalization with overlap

---- Real-time Memory Report at c_bands before calling an iterative solver
           111 MiB given to the printing process from OS
            56 MiB allocation reported by mallinfo(arena+hblkhd)
        484854 MiB available memory on the node where the printing process lives
------------------
     ethr =  2.36E-04,  avg # of iterations =  2.2

     negative rho (up, down):  9.978E-01 8.761E-01

     total cpu time spent up to now is       26.3 secs

     total energy              =    -634.77350240 Ry
     estimated scf accuracy    <       2.18739955 Ry

     total magnetization       =     0.00 Bohr mag/cell
     absolute magnetization    =     1.88 Bohr mag/cell

     iteration #  9     ecut=    50.00 Ry     beta= 0.40
     Davidson diagonalization with overlap

---- Real-time Memory Report at c_bands before calling an iterative solver
           111 MiB given to the printing process from OS
            57 MiB allocation reported by mallinfo(arena+hblkhd)
        484843 MiB available memory on the node where the printing process lives
------------------
     ethr =  2.36E-04,  avg # of iterations =  1.5

     negative rho (up, down):  1.000E+00 7.996E-01

     total cpu time spent up to now is       28.7 secs

     total energy              =    -634.75631990 Ry
     estimated scf accuracy    <       1.88362883 Ry

     total magnetization       =     0.00 Bohr mag/cell
     absolute magnetization    =     1.70 Bohr mag/cell

     iteration # 10     ecut=    50.00 Ry     beta= 0.40
     Davidson diagonalization with overlap

---- Real-time Memory Report at c_bands before calling an iterative solver
           111 MiB given to the printing process from OS
            57 MiB allocation reported by mallinfo(arena+hblkhd)
        484836 MiB available memory on the node where the printing process lives
------------------
     ethr =  2.36E-04,  avg # of iterations =  2.5

     negative rho (up, down):  1.017E+00 8.444E-01

     total cpu time spent up to now is       31.4 secs

     total energy              =    -634.76208627 Ry
     estimated scf accuracy    <       1.39902135 Ry

     total magnetization       =     0.00 Bohr mag/cell
     absolute magnetization    =     0.67 Bohr mag/cell

     iteration # 11     ecut=    50.00 Ry     beta= 0.40
     Davidson diagonalization with overlap

---- Real-time Memory Report at c_bands before calling an iterative solver
           111 MiB given to the printing process from OS
            57 MiB allocation reported by mallinfo(arena+hblkhd)
        484829 MiB available memory on the node where the printing process lives
------------------
     ethr =  2.36E-04,  avg # of iterations =  2.3

     negative rho (up, down):  1.038E+00 8.405E-01

     total cpu time spent up to now is       34.0 secs

     total energy              =    -634.75262706 Ry
     estimated scf accuracy    <       1.16193697 Ry

     total magnetization       =    -0.00 Bohr mag/cell
     absolute magnetization    =     1.17 Bohr mag/cell

     iteration # 12     ecut=    50.00 Ry     beta= 0.40
     Davidson diagonalization with overlap

---- Real-time Memory Report at c_bands before calling an iterative solver
           112 MiB given to the printing process from OS
            57 MiB allocation reported by mallinfo(arena+hblkhd)
        484829 MiB available memory on the node where the printing process lives
------------------
     ethr =  2.36E-04,  avg # of iterations =  3.8

     negative rho (up, down):  1.076E+00 8.120E-01

     total cpu time spent up to now is       36.7 secs

     total energy              =    -634.76271999 Ry
     estimated scf accuracy    <       1.07780687 Ry

     total magnetization       =    -0.00 Bohr mag/cell
     absolute magnetization    =     1.21 Bohr mag/cell

     iteration # 13     ecut=    50.00 Ry     beta= 0.40
     Davidson diagonalization with overlap

---- Real-time Memory Report at c_bands before calling an iterative solver
           112 MiB given to the printing process from OS
            57 MiB allocation reported by mallinfo(arena+hblkhd)
        484824 MiB available memory on the node where the printing process lives
------------------
     ethr =  2.36E-04,  avg # of iterations =  2.8

     negative rho (up, down):  1.039E+00 8.081E-01

     total cpu time spent up to now is       39.5 secs

     total energy              =    -634.75223575 Ry
     estimated scf accuracy    <       2.31171886 Ry

     total magnetization       =    -0.00 Bohr mag/cell
     absolute magnetization    =     1.92 Bohr mag/cell

     iteration # 14     ecut=    50.00 Ry     beta= 0.40
     Davidson diagonalization with overlap

---- Real-time Memory Report at c_bands before calling an iterative solver
           112 MiB given to the printing process from OS
            57 MiB allocation reported by mallinfo(arena+hblkhd)
        484822 MiB available memory on the node where the printing process lives
------------------
     ethr =  2.36E-04,  avg # of iterations =  3.0

     negative rho (up, down):  1.073E+00 8.620E-01

     total cpu time spent up to now is       42.1 secs

     total energy              =    -634.77115460 Ry
     estimated scf accuracy    <       1.07924183 Ry

     total magnetization       =     0.00 Bohr mag/cell
     absolute magnetization    =     1.18 Bohr mag/cell

     iteration # 15     ecut=    50.00 Ry     beta= 0.40
     Davidson diagonalization with overlap

---- Real-time Memory Report at c_bands before calling an iterative solver
           112 MiB given to the printing process from OS
            57 MiB allocation reported by mallinfo(arena+hblkhd)
        484820 MiB available memory on the node where the printing process lives
------------------
     ethr =  2.36E-04,  avg # of iterations =  3.5

     negative rho (up, down):  1.014E+00 8.473E-01

     total cpu time spent up to now is       44.7 secs

     total energy              =    -634.76040935 Ry
     estimated scf accuracy    <       2.24513872 Ry

     total magnetization       =    -0.00 Bohr mag/cell
     absolute magnetization    =     1.53 Bohr mag/cell

     iteration # 16     ecut=    50.00 Ry     beta= 0.40
     Davidson diagonalization with overlap

---- Real-time Memory Report at c_bands before calling an iterative solver
           112 MiB given to the printing process from OS
            57 MiB allocation reported by mallinfo(arena+hblkhd)
        484817 MiB available memory on the node where the printing process lives
------------------
     ethr =  2.36E-04,  avg # of iterations =  2.9

     negative rho (up, down):  1.051E+00 8.339E-01

     total cpu time spent up to now is       47.3 secs

     total energy              =    -634.76302881 Ry
     estimated scf accuracy    <       1.57417649 Ry

     total magnetization       =    -0.00 Bohr mag/cell
     absolute magnetization    =     2.13 Bohr mag/cell

     iteration # 17     ecut=    50.00 Ry     beta= 0.40
     Davidson diagonalization with overlap

---- Real-time Memory Report at c_bands before calling an iterative solver
           112 MiB given to the printing process from OS
            57 MiB allocation reported by mallinfo(arena+hblkhd)
        484815 MiB available memory on the node where the printing process lives
------------------
     ethr =  2.36E-04,  avg # of iterations =  2.3

     negative rho (up, down):  1.050E+00 8.472E-01

     total cpu time spent up to now is       49.9 secs

     total energy              =    -634.77368987 Ry
     estimated scf accuracy    <       1.71885444 Ry

     total magnetization       =     0.00 Bohr mag/cell
     absolute magnetization    =     1.64 Bohr mag/cell

     iteration # 18     ecut=    50.00 Ry     beta= 0.40
     Davidson diagonalization with overlap

---- Real-time Memory Report at c_bands before calling an iterative solver
           112 MiB given to the printing process from OS
            57 MiB allocation reported by mallinfo(arena+hblkhd)
        484813 MiB available memory on the node where the printing process lives
------------------
     ethr =  2.36E-04,  avg # of iterations =  2.0

     negative rho (up, down):  1.039E+00 8.493E-01

     total cpu time spent up to now is       52.4 secs

     total energy              =    -634.76673168 Ry
     estimated scf accuracy    <       2.42952237 Ry

     total magnetization       =     0.00 Bohr mag/cell
     absolute magnetization    =     1.79 Bohr mag/cell

     iteration # 19     ecut=    50.00 Ry     beta= 0.40
     Davidson diagonalization with overlap

---- Real-time Memory Report at c_bands before calling an iterative solver
           112 MiB given to the printing process from OS
            57 MiB allocation reported by mallinfo(arena+hblkhd)
        484804 MiB available memory on the node where the printing process lives
------------------
     ethr =  2.36E-04,  avg # of iterations =  1.8

     negative rho (up, down):  9.907E-01 7.859E-01

     total cpu time spent up to now is       54.8 secs

     total energy              =    -634.75183582 Ry
     estimated scf accuracy    <       1.97987082 Ry

     total magnetization       =    -0.00 Bohr mag/cell
     absolute magnetization    =     1.83 Bohr mag/cell

     iteration # 20     ecut=    50.00 Ry     beta= 0.40
     Davidson diagonalization with overlap

---- Real-time Memory Report at c_bands before calling an iterative solver
           112 MiB given to the printing process from OS
            57 MiB allocation reported by mallinfo(arena+hblkhd)
        484803 MiB available memory on the node where the printing process lives
------------------
     ethr =  2.36E-04,  avg # of iterations =  3.1

     negative rho (up, down):  9.381E-01 7.716E-01

     total cpu time spent up to now is       57.5 secs

     total energy              =    -634.73237408 Ry
     estimated scf accuracy    <       1.40487826 Ry

     total magnetization       =     0.00 Bohr mag/cell
     absolute magnetization    =     2.13 Bohr mag/cell

     iteration # 21     ecut=    50.00 Ry     beta= 0.40
     Davidson diagonalization with overlap

---- Real-time Memory Report at c_bands before calling an iterative solver
           112 MiB given to the printing process from OS
            57 MiB allocation reported by mallinfo(arena+hblkhd)
        484798 MiB available memory on the node where the printing process lives
------------------
     ethr =  2.36E-04,  avg # of iterations =  3.3

     negative rho (up, down):  8.756E-01 7.240E-01

     total cpu time spent up to now is       60.2 secs

     total energy              =    -634.73813056 Ry
     estimated scf accuracy    <       0.19153047 Ry

     total magnetization       =    -0.00 Bohr mag/cell
     absolute magnetization    =     1.13 Bohr mag/cell

     iteration # 22     ecut=    50.00 Ry     beta= 0.40
     Davidson diagonalization with overlap

---- Real-time Memory Report at c_bands before calling an iterative solver
           112 MiB given to the printing process from OS
            57 MiB allocation reported by mallinfo(arena+hblkhd)
        484798 MiB available memory on the node where the printing process lives
------------------
     ethr =  2.36E-04,  avg # of iterations =  2.8

     negative rho (up, down):  8.834E-01 7.220E-01

     total cpu time spent up to now is       62.9 secs

     total energy              =    -634.74330651 Ry
     estimated scf accuracy    <       0.28008423 Ry

     total magnetization       =     0.00 Bohr mag/cell
     absolute magnetization    =     1.66 Bohr mag/cell

     iteration # 23     ecut=    50.00 Ry     beta= 0.40
     Davidson diagonalization with overlap

---- Real-time Memory Report at c_bands before calling an iterative solver
           112 MiB given to the printing process from OS
            57 MiB allocation reported by mallinfo(arena+hblkhd)
        484796 MiB available memory on the node where the printing process lives
------------------
     ethr =  2.36E-04,  avg # of iterations =  1.5

     negative rho (up, down):  8.824E-01 7.115E-01

     total cpu time spent up to now is       65.2 secs

     total energy              =    -634.74063123 Ry
     estimated scf accuracy    <       0.27992065 Ry

     total magnetization       =     0.00 Bohr mag/cell
     absolute magnetization    =     1.77 Bohr mag/cell

     iteration # 24     ecut=    50.00 Ry     beta= 0.40
     Davidson diagonalization with overlap

---- Real-time Memory Report at c_bands before calling an iterative solver
           112 MiB given to the printing process from OS
            57 MiB allocation reported by mallinfo(arena+hblkhd)
        484826 MiB available memory on the node where the printing process lives
------------------
     ethr =  2.36E-04,  avg # of iterations =  1.5

     negative rho (up, down):  8.788E-01 7.119E-01

     total cpu time spent up to now is       67.6 secs

     total energy              =    -634.74262408 Ry
     estimated scf accuracy    <       0.14267990 Ry

     total magnetization       =    -0.00 Bohr mag/cell
     absolute magnetization    =     1.44 Bohr mag/cell

     iteration # 25     ecut=    50.00 Ry     beta= 0.40
     Davidson diagonalization with overlap

---- Real-time Memory Report at c_bands before calling an iterative solver
           112 MiB given to the printing process from OS
            57 MiB allocation reported by mallinfo(arena+hblkhd)
        484825 MiB available memory on the node where the printing process lives
------------------
     ethr =  2.36E-04,  avg # of iterations =  1.8

     negative rho (up, down):  8.685E-01 6.960E-01

     total cpu time spent up to now is       70.0 secs

     total energy              =    -634.74329230 Ry
     estimated scf accuracy    <       0.14103385 Ry

     total magnetization       =    -0.00 Bohr mag/cell
     absolute magnetization    =     1.40 Bohr mag/cell

     iteration # 26     ecut=    50.00 Ry     beta= 0.40
     Davidson diagonalization with overlap

---- Real-time Memory Report at c_bands before calling an iterative solver
           112 MiB given to the printing process from OS
            57 MiB allocation reported by mallinfo(arena+hblkhd)
        484824 MiB available memory on the node where the printing process lives
------------------
     ethr =  2.36E-04,  avg # of iterations =  1.0

     negative rho (up, down):  8.688E-01 7.015E-01

     total cpu time spent up to now is       72.3 secs

     total energy              =    -634.74311331 Ry
     estimated scf accuracy    <       0.17300267 Ry

     total magnetization       =     0.00 Bohr mag/cell
     absolute magnetization    =     1.25 Bohr mag/cell

     iteration # 27     ecut=    50.00 Ry     beta= 0.40
     Davidson diagonalization with overlap

---- Real-time Memory Report at c_bands before calling an iterative solver
           112 MiB given to the printing process from OS
            57 MiB allocation reported by mallinfo(arena+hblkhd)
        484821 MiB available memory on the node where the printing process lives
------------------
     ethr =  2.36E-04,  avg # of iterations =  1.5

     negative rho (up, down):  8.656E-01 6.974E-01

     total cpu time spent up to now is       74.6 secs

     total energy              =    -634.74478279 Ry
     estimated scf accuracy    <       0.14999472 Ry

     total magnetization       =     0.00 Bohr mag/cell
     absolute magnetization    =     1.08 Bohr mag/cell

     iteration # 28     ecut=    50.00 Ry     beta= 0.40
     Davidson diagonalization with overlap

---- Real-time Memory Report at c_bands before calling an iterative solver
           112 MiB given to the printing process from OS
            57 MiB allocation reported by mallinfo(arena+hblkhd)
        484821 MiB available memory on the node where the printing process lives
------------------
     ethr =  2.36E-04,  avg # of iterations =  1.0

     negative rho (up, down):  8.499E-01 6.569E-01

     total cpu time spent up to now is       76.9 secs

     total energy              =    -634.72599762 Ry
     estimated scf accuracy    <       0.21145071 Ry

     total magnetization       =     0.00 Bohr mag/cell
     absolute magnetization    =     1.23 Bohr mag/cell

     iteration # 29     ecut=    50.00 Ry     beta= 0.40
     Davidson diagonalization with overlap

---- Real-time Memory Report at c_bands before calling an iterative solver
           112 MiB given to the printing process from OS
            57 MiB allocation reported by mallinfo(arena+hblkhd)
        484814 MiB available memory on the node where the printing process lives
------------------
     ethr =  2.36E-04,  avg # of iterations =  3.5

     negative rho (up, down):  8.649E-01 6.903E-01

     total cpu time spent up to now is       79.9 secs

     total energy              =    -634.72917986 Ry
     estimated scf accuracy    <       1.44281173 Ry

     total magnetization       =    -0.00 Bohr mag/cell
     absolute magnetization    =     1.66 Bohr mag/cell

     iteration # 30     ecut=    50.00 Ry     beta= 0.40
     Davidson diagonalization with overlap

---- Real-time Memory Report at c_bands before calling an iterative solver
           112 MiB given to the printing process from OS
            57 MiB allocation reported by mallinfo(arena+hblkhd)
        484811 MiB available memory on the node where the printing process lives
------------------
     ethr =  2.36E-04,  avg # of iterations =  3.4

     negative rho (up, down):  9.165E-01 7.708E-01

     total cpu time spent up to now is       82.7 secs

     total energy              =    -634.74180284 Ry
     estimated scf accuracy    <       0.16247288 Ry

     total magnetization       =    -0.00 Bohr mag/cell
     absolute magnetization    =     0.95 Bohr mag/cell

     iteration # 31     ecut=    50.00 Ry     beta= 0.40
     Davidson diagonalization with overlap

---- Real-time Memory Report at c_bands before calling an iterative solver
           112 MiB given to the printing process from OS
            57 MiB allocation reported by mallinfo(arena+hblkhd)
        484811 MiB available memory on the node where the printing process lives
------------------
     ethr =  2.36E-04,  avg # of iterations =  3.0

     negative rho (up, down):  8.844E-01 7.526E-01

     total cpu time spent up to now is       85.3 secs

     total energy              =    -634.75280501 Ry
     estimated scf accuracy    <       0.62511657 Ry

     total magnetization       =     0.00 Bohr mag/cell
     absolute magnetization    =     1.86 Bohr mag/cell

     iteration # 32     ecut=    50.00 Ry     beta= 0.40
     Davidson diagonalization with overlap

---- Real-time Memory Report at c_bands before calling an iterative solver
           112 MiB given to the printing process from OS
            57 MiB allocation reported by mallinfo(arena+hblkhd)
        484811 MiB available memory on the node where the printing process lives
------------------
     ethr =  2.36E-04,  avg # of iterations =  2.5

     negative rho (up, down):  9.278E-01 7.604E-01

     total cpu time spent up to now is       87.9 secs

     total energy              =    -634.77002609 Ry
     estimated scf accuracy    <       1.23691650 Ry

     total magnetization       =    -0.00 Bohr mag/cell
     absolute magnetization    =     1.99 Bohr mag/cell

     iteration # 33     ecut=    50.00 Ry     beta= 0.40
     Davidson diagonalization with overlap

---- Real-time Memory Report at c_bands before calling an iterative solver
           112 MiB given to the printing process from OS
            57 MiB allocation reported by mallinfo(arena+hblkhd)
        484809 MiB available memory on the node where the printing process lives
------------------
     ethr =  2.36E-04,  avg # of iterations =  3.5

     negative rho (up, down):  9.576E-01 8.345E-01

     total cpu time spent up to now is       90.7 secs

     total energy              =    -634.66405225 Ry
     estimated scf accuracy    <       2.95445606 Ry

     total magnetization       =     0.00 Bohr mag/cell
     absolute magnetization    =     2.67 Bohr mag/cell

     iteration # 34     ecut=    50.00 Ry     beta= 0.40
     Davidson diagonalization with overlap

---- Real-time Memory Report at c_bands before calling an iterative solver
           112 MiB given to the printing process from OS
            57 MiB allocation reported by mallinfo(arena+hblkhd)
        484805 MiB available memory on the node where the printing process lives
------------------
     ethr =  2.36E-04,  avg # of iterations =  4.7

     negative rho (up, down):  9.148E-01 7.411E-01

     total cpu time spent up to now is       94.0 secs

     total energy              =    -634.73004916 Ry
     estimated scf accuracy    <       1.33443838 Ry

[...]
            57 MiB allocation reported by mallinfo(arena+hblkhd)
        484582 MiB available memory on the node where the printing process lives
------------------
     ethr =  1.69E-05,  avg # of iterations =  2.3

     negative rho (up, down):  4.739E-01 1.122E+00

     total cpu time spent up to now is     1336.4 secs

     total energy              =    -634.73698393 Ry
     estimated scf accuracy    <       0.14468820 Ry

     total magnetization       =    -0.00 Bohr mag/cell
     absolute magnetization    =     2.21 Bohr mag/cell

     iteration #481     ecut=    50.00 Ry     beta= 0.40
     Davidson diagonalization with overlap

---- Real-time Memory Report at c_bands before calling an iterative solver
           114 MiB given to the printing process from OS
            57 MiB allocation reported by mallinfo(arena+hblkhd)
        484582 MiB available memory on the node where the printing process lives
------------------
     ethr =  1.69E-05,  avg # of iterations =  3.9

     negative rho (up, down):  4.667E-01 1.121E+00

     total cpu time spent up to now is     1339.0 secs

     total energy              =    -634.73538048 Ry
     estimated scf accuracy    <       0.15491255 Ry

     total magnetization       =    -0.00 Bohr mag/cell
     absolute magnetization    =     2.15 Bohr mag/cell

     iteration #482     ecut=    50.00 Ry     beta= 0.40
     Davidson diagonalization with overlap

---- Real-time Memory Report at c_bands before calling an iterative solver
           114 MiB given to the printing process from OS
            57 MiB allocation reported by mallinfo(arena+hblkhd)
        484581 MiB available memory on the node where the printing process lives
------------------
     ethr =  1.69E-05,  avg # of iterations =  3.7

     negative rho (up, down):  4.765E-01 1.125E+00

     total cpu time spent up to now is     1341.6 secs

     total energy              =    -634.73666709 Ry
     estimated scf accuracy    <       0.06541222 Ry

     total magnetization       =     0.00 Bohr mag/cell
     absolute magnetization    =     2.10 Bohr mag/cell

     iteration #483     ecut=    50.00 Ry     beta= 0.40
     Davidson diagonalization with overlap

---- Real-time Memory Report at c_bands before calling an iterative solver
           114 MiB given to the printing process from OS
            57 MiB allocation reported by mallinfo(arena+hblkhd)
        484581 MiB available memory on the node where the printing process lives
------------------
     ethr =  1.69E-05,  avg # of iterations =  3.0

     negative rho (up, down):  4.517E-01 1.120E+00

     total cpu time spent up to now is     1344.2 secs

     total energy              =    -634.73273620 Ry
     estimated scf accuracy    <       0.15134134 Ry

     total magnetization       =     0.00 Bohr mag/cell
     absolute magnetization    =     2.30 Bohr mag/cell

     iteration #484     ecut=    50.00 Ry     beta= 0.40
     Davidson diagonalization with overlap

---- Real-time Memory Report at c_bands before calling an iterative solver
           114 MiB given to the printing process from OS
            57 MiB allocation reported by mallinfo(arena+hblkhd)
        484580 MiB available memory on the node where the printing process lives
------------------
     ethr =  1.69E-05,  avg # of iterations =  4.8

     negative rho (up, down):  4.532E-01 1.126E+00

     total cpu time spent up to now is     1347.1 secs

     total energy              =    -634.73457576 Ry
     estimated scf accuracy    <       0.00882785 Ry

     total magnetization       =     0.00 Bohr mag/cell
     absolute magnetization    =     2.04 Bohr mag/cell

     iteration #485     ecut=    50.00 Ry     beta= 0.40
     Davidson diagonalization with overlap

---- Real-time Memory Report at c_bands before calling an iterative solver
           114 MiB given to the printing process from OS
            57 MiB allocation reported by mallinfo(arena+hblkhd)
        484580 MiB available memory on the node where the printing process lives
------------------
     ethr =  1.69E-05,  avg # of iterations =  1.7

     negative rho (up, down):  4.520E-01 1.123E+00

     total cpu time spent up to now is     1349.5 secs

     total energy              =    -634.73481103 Ry
     estimated scf accuracy    <       0.00706732 Ry

     total magnetization       =     0.00 Bohr mag/cell
     absolute magnetization    =     2.01 Bohr mag/cell

     iteration #486     ecut=    50.00 Ry     beta= 0.40
     Davidson diagonalization with overlap

---- Real-time Memory Report at c_bands before calling an iterative solver
           114 MiB given to the printing process from OS
            57 MiB allocation reported by mallinfo(arena+hblkhd)
        484579 MiB available memory on the node where the printing process lives
------------------
     ethr =  1.68E-05,  avg # of iterations =  1.5

     negative rho (up, down):  4.475E-01 1.089E+00

     total cpu time spent up to now is     1351.9 secs

     total energy              =    -634.73564188 Ry
     estimated scf accuracy    <       0.01087651 Ry

     total magnetization       =    -0.00 Bohr mag/cell
     absolute magnetization    =     1.99 Bohr mag/cell

     iteration #487     ecut=    50.00 Ry     beta= 0.40
     Davidson diagonalization with overlap

---- Real-time Memory Report at c_bands before calling an iterative solver
           114 MiB given to the printing process from OS
            57 MiB allocation reported by mallinfo(arena+hblkhd)
        484579 MiB available memory on the node where the printing process lives
------------------
     ethr =  1.68E-05,  avg # of iterations =  5.1

     negative rho (up, down):  4.388E-01 1.108E+00

     total cpu time spent up to now is     1355.0 secs

     total energy              =    -634.73404643 Ry
     estimated scf accuracy    <       0.35285136 Ry

     total magnetization       =    -0.00 Bohr mag/cell
     absolute magnetization    =     2.16 Bohr mag/cell

     iteration #488     ecut=    50.00 Ry     beta= 0.40
     Davidson diagonalization with overlap

---- Real-time Memory Report at c_bands before calling an iterative solver
           114 MiB given to the printing process from OS
            57 MiB allocation reported by mallinfo(arena+hblkhd)
        484578 MiB available memory on the node where the printing process lives
------------------
     ethr =  1.68E-05,  avg # of iterations =  4.4

     negative rho (up, down):  4.306E-01 1.104E+00

     total cpu time spent up to now is     1358.0 secs

     total energy              =    -634.73629206 Ry
     estimated scf accuracy    <       0.12216009 Ry

     total magnetization       =     0.00 Bohr mag/cell
     absolute magnetization    =     2.20 Bohr mag/cell

     iteration #489     ecut=    50.00 Ry     beta= 0.40
     Davidson diagonalization with overlap

---- Real-time Memory Report at c_bands before calling an iterative solver
           114 MiB given to the printing process from OS
            57 MiB allocation reported by mallinfo(arena+hblkhd)
        484577 MiB available memory on the node where the printing process lives
------------------
     ethr =  1.68E-05,  avg # of iterations =  2.5

     negative rho (up, down):  4.692E-01 1.137E+00

     total cpu time spent up to now is     1360.7 secs

     total energy              =    -634.73550919 Ry
     estimated scf accuracy    <       0.15478136 Ry

     total magnetization       =     0.00 Bohr mag/cell
     absolute magnetization    =     2.21 Bohr mag/cell

     iteration #490     ecut=    50.00 Ry     beta= 0.40
     Davidson diagonalization with overlap

---- Real-time Memory Report at c_bands before calling an iterative solver
           114 MiB given to the printing process from OS
            57 MiB allocation reported by mallinfo(arena+hblkhd)
        484576 MiB available memory on the node where the printing process lives
------------------
     ethr =  1.68E-05,  avg # of iterations =  4.4

     negative rho (up, down):  4.648E-01 1.141E+00

     total cpu time spent up to now is     1363.4 secs

     total energy              =    -634.73609602 Ry
     estimated scf accuracy    <       0.16113164 Ry

     total magnetization       =    -0.00 Bohr mag/cell
     absolute magnetization    =     2.14 Bohr mag/cell

     iteration #491     ecut=    50.00 Ry     beta= 0.40
     Davidson diagonalization with overlap

---- Real-time Memory Report at c_bands before calling an iterative solver
           114 MiB given to the printing process from OS
            57 MiB allocation reported by mallinfo(arena+hblkhd)
        484573 MiB available memory on the node where the printing process lives
------------------
     ethr =  1.68E-05,  avg # of iterations =  3.0

     negative rho (up, down):  4.582E-01 1.132E+00

     total cpu time spent up to now is     1366.0 secs

     total energy              =    -634.73525494 Ry
     estimated scf accuracy    <       0.14223043 Ry

     total magnetization       =     0.00 Bohr mag/cell
     absolute magnetization    =     2.07 Bohr mag/cell

     iteration #492     ecut=    50.00 Ry     beta= 0.40
     Davidson diagonalization with overlap

---- Real-time Memory Report at c_bands before calling an iterative solver
           114 MiB given to the printing process from OS
            57 MiB allocation reported by mallinfo(arena+hblkhd)
        484573 MiB available memory on the node where the printing process lives
------------------
     ethr =  1.68E-05,  avg # of iterations =  3.1

     negative rho (up, down):  4.603E-01 1.133E+00

     total cpu time spent up to now is     1368.7 secs

     total energy              =    -634.73637657 Ry
     estimated scf accuracy    <       0.09050594 Ry

     total magnetization       =     0.00 Bohr mag/cell
     absolute magnetization    =     2.23 Bohr mag/cell

     iteration #493     ecut=    50.00 Ry     beta= 0.40
     Davidson diagonalization with overlap

---- Real-time Memory Report at c_bands before calling an iterative solver
           114 MiB given to the printing process from OS
            57 MiB allocation reported by mallinfo(arena+hblkhd)
        484572 MiB available memory on the node where the printing process lives
------------------
     ethr =  1.68E-05,  avg # of iterations =  1.5

     negative rho (up, down):  4.513E-01 1.118E+00

     total cpu time spent up to now is     1371.0 secs

     total energy              =    -634.73605260 Ry
     estimated scf accuracy    <       0.11288495 Ry

     total magnetization       =    -0.00 Bohr mag/cell
     absolute magnetization    =     2.25 Bohr mag/cell

     iteration #494     ecut=    50.00 Ry     beta= 0.40
     Davidson diagonalization with overlap

---- Real-time Memory Report at c_bands before calling an iterative solver
           114 MiB given to the printing process from OS
            57 MiB allocation reported by mallinfo(arena+hblkhd)
        484570 MiB available memory on the node where the printing process lives
------------------
     ethr =  1.68E-05,  avg # of iterations =  2.5

     negative rho (up, down):  4.801E-01 1.160E+00

     total cpu time spent up to now is     1373.5 secs

     total energy              =    -634.73446301 Ry
     estimated scf accuracy    <       0.13303308 Ry

     total magnetization       =    -0.00 Bohr mag/cell
     absolute magnetization    =     2.40 Bohr mag/cell

     iteration #495     ecut=    50.00 Ry     beta= 0.40
     Davidson diagonalization with overlap

---- Real-time Memory Report at c_bands before calling an iterative solver
           114 MiB given to the printing process from OS
            57 MiB allocation reported by mallinfo(arena+hblkhd)
        484570 MiB available memory on the node where the printing process lives
------------------
     ethr =  1.68E-05,  avg # of iterations =  4.3

     negative rho (up, down):  4.006E-01 1.050E+00

     total cpu time spent up to now is     1376.4 secs

     total energy              =    -634.72725072 Ry
     estimated scf accuracy    <       0.21275754 Ry

     total magnetization       =    -0.00 Bohr mag/cell
     absolute magnetization    =     2.11 Bohr mag/cell

     iteration #496     ecut=    50.00 Ry     beta= 0.40
     Davidson diagonalization with overlap

---- Real-time Memory Report at c_bands before calling an iterative solver
           114 MiB given to the printing process from OS
            57 MiB allocation reported by mallinfo(arena+hblkhd)
        484570 MiB available memory on the node where the printing process lives
------------------
     ethr =  1.68E-05,  avg # of iterations =  5.2

     negative rho (up, down):  4.239E-01 1.107E+00

     total cpu time spent up to now is     1380.0 secs

     total energy              =    -634.72926769 Ry
     estimated scf accuracy    <       0.43205361 Ry

     total magnetization       =     0.00 Bohr mag/cell
     absolute magnetization    =     1.23 Bohr mag/cell

     iteration #497     ecut=    50.00 Ry     beta= 0.40
     Davidson diagonalization with overlap

---- Real-time Memory Report at c_bands before calling an iterative solver
           114 MiB given to the printing process from OS
            57 MiB allocation reported by mallinfo(arena+hblkhd)
        484570 MiB available memory on the node where the printing process lives
------------------
     ethr =  1.68E-05,  avg # of iterations =  5.2

     negative rho (up, down):  4.306E-01 1.114E+00

     total cpu time spent up to now is     1383.1 secs

     total energy              =    -634.73750113 Ry
     estimated scf accuracy    <       0.16837243 Ry

     total magnetization       =     0.00 Bohr mag/cell
     absolute magnetization    =     2.00 Bohr mag/cell

     iteration #498     ecut=    50.00 Ry     beta= 0.40
     Davidson diagonalization with overlap

---- Real-time Memory Report at c_bands before calling an iterative solver
           114 MiB given to the printing process from OS
            57 MiB allocation reported by mallinfo(arena+hblkhd)
        484568 MiB available memory on the node where the printing process lives
------------------
     ethr =  1.68E-05,  avg # of iterations =  3.9

     negative rho (up, down):  4.253E-01 1.132E+00

     total cpu time spent up to now is     1385.7 secs

     total energy              =    -634.73330948 Ry
     estimated scf accuracy    <       0.25054335 Ry

     total magnetization       =    -0.00 Bohr mag/cell
     absolute magnetization    =     2.18 Bohr mag/cell

     iteration #499     ecut=    50.00 Ry     beta= 0.40
     Davidson diagonalization with overlap

---- Real-time Memory Report at c_bands before calling an iterative solver
           114 MiB given to the printing process from OS
            57 MiB allocation reported by mallinfo(arena+hblkhd)
        484568 MiB available memory on the node where the printing process lives
------------------
     ethr =  1.68E-05,  avg # of iterations =  3.9

     negative rho (up, down):  4.306E-01 1.128E+00

     total cpu time spent up to now is     1388.6 secs

     total energy              =    -634.73441563 Ry
     estimated scf accuracy    <       0.07805628 Ry

     total magnetization       =     0.00 Bohr mag/cell
     absolute magnetization    =     1.91 Bohr mag/cell

     iteration #500     ecut=    50.00 Ry     beta= 0.40
     Davidson diagonalization with overlap

---- Real-time Memory Report at c_bands before calling an iterative solver
           114 MiB given to the printing process from OS
            57 MiB allocation reported by mallinfo(arena+hblkhd)
        484567 MiB available memory on the node where the printing process lives
------------------
     ethr =  1.68E-05,  avg # of iterations =  2.6

     negative rho (up, down):  4.126E-01 1.088E+00

     total cpu time spent up to now is     1391.1 secs

     total energy              =    -634.73942668 Ry
     estimated scf accuracy    <       0.07206197 Ry

     total magnetization       =    -0.00 Bohr mag/cell
     absolute magnetization    =     1.94 Bohr mag/cell

     End of self-consistent calculation

     convergence NOT achieved after 500 iterations: stopping

     Writing config to output data dir ./out/aiida.save/ :
     XML data file, charge density

     init_run     :      1.84s CPU      1.97s WALL (       1 calls)
     electrons    :   1325.20s CPU   1388.33s WALL (       1 calls)

     Called by init_run:
     wfcinit      :      0.97s CPU      1.03s WALL (       1 calls)
     wfcinit:atom :      0.02s CPU      0.02s WALL (      71 calls)
     wfcinit:wfcr :      0.87s CPU      0.92s WALL (      71 calls)
     potinit      :      0.28s CPU      0.30s WALL (       1 calls)
     hinit0       :      0.47s CPU      0.51s WALL (       1 calls)

     Called by electrons:
     c_bands      :   1059.65s CPU   1104.10s WALL (     500 calls)
     sum_band     :    187.31s CPU    194.50s WALL (     500 calls)
     v_of_rho     :     20.65s CPU     22.11s WALL (     501 calls)
     v_h          :      0.52s CPU      0.57s WALL (     501 calls)
     v_xc         :     20.13s CPU     21.55s WALL (     501 calls)
     newd         :      6.38s CPU      6.99s WALL (     501 calls)
     PAW_pot      :     44.04s CPU     52.65s WALL (     501 calls)
     mix_rho      :      2.61s CPU      2.72s WALL (     500 calls)

     Called by c_bands:
     init_us_2    :     19.36s CPU     20.08s WALL (   71071 calls)
     init_us_2:cp :     19.20s CPU     19.86s WALL (   71071 calls)
     cegterg      :    953.55s CPU    983.13s WALL (   35500 calls)

     Called by sum_band:
     sum_band:wei :      0.21s CPU      0.30s WALL (     500 calls)
     sum_band:loo :    171.18s CPU    177.27s WALL (     500 calls)
     sum_band:buf :      1.34s CPU      1.41s WALL (   35500 calls)
     sum_band:ini :      9.39s CPU      9.65s WALL (   35500 calls)
     sum_band:cal :     15.40s CPU     15.84s WALL (   35500 calls)
     sum_band:bec :      0.56s CPU      0.59s WALL (   35500 calls)
     addusdens    :     10.64s CPU     10.84s WALL (     500 calls)
                                        0.00s GPU  (     500 calls)
     addusd:skk   :      0.03s CPU      0.04s WALL (    2000 calls)
                                        0.00s GPU  (    2000 calls)

     Called by *egterg:
     cdiaghg      :     98.05s CPU     99.53s WALL (  153683 calls)
     cegterg:over :     27.27s CPU     27.89s WALL (  118183 calls)
     cegterg:upda :     15.79s CPU     16.20s WALL (  118183 calls)
     cegterg:last :     28.68s CPU     28.94s WALL (   66364 calls)
     h_psi        :    730.44s CPU    755.61s WALL (  153754 calls)
     s_psi        :     34.03s CPU     34.62s WALL (  153754 calls)
     g_psi        :      1.91s CPU      2.00s WALL (  118183 calls)

     Called by h_psi:
     h_psi:calbec :     42.32s CPU     43.55s WALL (  153754 calls)
     vloc_psi     :    648.85s CPU    671.73s WALL (  153754 calls)
     add_vuspsi   :     36.38s CPU     37.06s WALL (  153754 calls)

     General routines
     calbec       :     57.25s CPU     58.83s WALL (  189254 calls)
     fft          :      6.85s CPU      7.84s WALL (   12523 calls)
     ffts         :      0.56s CPU      0.62s WALL (    2002 calls)
     fftw         :    676.19s CPU    697.36s WALL ( 4902964 calls)
     interpolate  :      1.08s CPU      1.16s WALL (    1002 calls)
     davcio       :      0.00s CPU      0.03s WALL (      89 calls)

     Parallel routines

     PAW routines
     PAW_pot      :     44.04s CPU     52.65s WALL (     501 calls)
     PAW_symme    :      0.12s CPU      0.13s WALL (    1001 calls)

     PWSCF        :  22m 7.91s CPU  23m11.98s WALL


   This run was terminated on:  22: 7:45  28Nov2023            

=------------------------------------------------------------------------------=
   JOB DONE.
=------------------------------------------------------------------------------=
