
     Program PWSCF v.7.2 starts on 23Oct2023 at 18: 6:54 

     This program is part of the open-source Quantum ESPRESSO suite
     for quantum simulation of materials; please cite
         "P. Giannozzi et al., J. Phys.:Condens. Matter 21 395502 (2009);
         "P. Giannozzi et al., J. Phys.:Condens. Matter 29 465901 (2017);
         "P. Giannozzi et al., J. Chem. Phys. 152 154105 (2020);
          URL http://www.quantum-espresso.org", 
     in publications or presentations arising from this work. More details at
     http://www.quantum-espresso.org/quote

     Parallel version (MPI & OpenMP), running on      12 processor cores
     Number of MPI processes:                 1
     Threads/MPI process:                    12

     MPI processes distributed on     1 nodes
     60522 MiB available memory on the printing compute node when the environment starts
 
     Reading input from aiida.in

     Current dimensions of program PWSCF are:
     Max number of different atomic species (ntypx) = 10
     Max number of k-points (npk) =  40000
     Max angular momentum in pseudopotentials (lmaxx) =  4
     file In.pbesol-dn-rrkjus_psl.0.2.2.UPF: wavefunction(s)  5S renormalized
     Message from routine setup:
     using ibrav=0 with symmetry is DISCOURAGED, use correct ibrav instead
 
     Subspace diagonalization in iterative solution of the eigenvalue problem:
     a serial algorithm will be used

 
     G-vector sticks info
     --------------------
     sticks:   dense  smooth     PW     G-vecs:    dense   smooth      PW
     Sum        1993    1003    301                58887    20875    3479
 
     Using Slab Decomposition
 


     bravais-lattice index     =            0
     lattice parameter (alat)  =       8.5252  a.u.
     unit-cell volume          =     438.1256 (a.u.)^3
     number of atoms/cell      =            4
     number of atomic types    =            4
     number of electrons       =        52.00
     number of Kohn-Sham states=           31
     kinetic-energy cutoff     =      50.0000  Ry
     charge density cutoff     =     400.0000  Ry
     scf convergence threshold =      8.0E-10
     mixing beta               =       0.2000
     number of iterations used =            8  plain     mixing
     Exchange-correlation= SLA  PW   PSX  PSC
                           (   1   4  10   8   0   0   0)

     GPU acceleration is ACTIVE.


     GPU used by master process:

        Device Number: 0
        Device name: Tesla P100-PCIE-16GB
        Compute capability : 60
        Ratio of single to double precision performance  : 2
        Memory Clock Rate (KHz): 715000
        Memory Bus Width (bits): 4096
        Peak Memory Bandwidth (GB/s): 732.16

     celldm(1)=   8.525199  celldm(2)=   0.000000  celldm(3)=   0.000000
     celldm(4)=   0.000000  celldm(5)=   0.000000  celldm(6)=   0.000000

     crystal axes: (cart. coord. in units of alat)
               a(1) = (   0.000000   0.707107   0.707107 )  
               a(2) = (   0.707107   0.000000   0.707107 )  
               a(3) = (   0.707107   0.707107   0.000000 )  

     reciprocal axes: (cart. coord. in units 2 pi/alat)
               b(1) = ( -0.707107  0.707107  0.707107 )  
               b(2) = (  0.707107 -0.707107  0.707107 )  
               b(3) = (  0.707107  0.707107 -0.707107 )  


     PseudoPot. # 1 for Cr read from file:
     ./pseudo/cr_pbesol_v1.5.uspp.F.UPF
     MD5 check sum: a621641e0be27168676a837af8893d0f
     Pseudo is Ultrasoft + core correction, Zval = 14.0
     Generated by new atomic code, or converted to UPF format
     Using radial grid of  857 points,  6 beta functions with: 
                l(1) =   0
                l(2) =   0
                l(3) =   1
                l(4) =   1
                l(5) =   2
                l(6) =   2
     Q(r) pseudized with  8 coefficients,  rinner =    0.950   0.950   0.950
                                                       0.950   0.950

     PseudoPot. # 2 for Hf read from file:
     ./pseudo/Hf-sp.oncvpsp.upf
     MD5 check sum: 3619c98de2ee908b1d969add25be4863
     Pseudo is Norm-conserving + core correction, Zval = 12.0
     Generated using ONCVPSP code by D. R. Hamann
     Using radial grid of 1656 points,  8 beta functions with: 
                l(1) =   0
                l(2) =   0
                l(3) =   1
                l(4) =   1
                l(5) =   2
                l(6) =   2
                l(7) =   3
                l(8) =   3

     PseudoPot. # 3 for In read from file:
     ./pseudo/In.pbesol-dn-rrkjus_psl.0.2.2.UPF
     MD5 check sum: 2a3399a31491503da6b8c7d8e01e9843
     Pseudo is Ultrasoft + core correction, Zval = 13.0
     Generated using "atomic" code by A. Dal Corso  v.6.0 svn rev. 13079
     Using radial grid of 1241 points,  6 beta functions with: 
                l(1) =   0
                l(2) =   0
                l(3) =   1
                l(4) =   1
                l(5) =   2
                l(6) =   2
     Q(r) pseudized with 0 coefficients 


     PseudoPot. # 4 for V  read from file:
     ./pseudo/v_pbesol_v1.4.uspp.F.UPF
     MD5 check sum: 72fa7d0034c41d8adc50bbc8c632b9f9
     Pseudo is Ultrasoft + core correction, Zval = 13.0
     Generated by new atomic code, or converted to UPF format
     Using radial grid of  853 points,  6 beta functions with: 
                l(1) =   0
                l(2) =   0
                l(3) =   1
                l(4) =   1
                l(5) =   2
                l(6) =   2
     Q(r) pseudized with  8 coefficients,  rinner =    1.100   1.100   1.100
                                                       1.100   1.100

     atomic species   valence    mass     pseudopotential
        Cr            14.00    51.99610     Cr( 1.00)
        Hf            12.00   178.49000     Hf( 1.00)
        In            13.00   114.81800     In( 1.00)
        V             13.00    50.94150     V ( 1.00)

     Starting magnetic structure 
     atomic species   magnetization
        Cr           0.357
        Hf           0.417
        In           0.100
        V            0.385

     24 Sym. Ops. (no inversion) found


                                    s                        frac. trans.

      isym =  1     identity                                     

 cryst.   s( 1) = (     1          0          0      )
                  (     0          1          0      )
                  (     0          0          1      )

 cart.    s( 1) = (  1.0000000 -0.0000000  0.0000000 )
                  ( -0.0000000  1.0000000  0.0000000 )
                  ( -0.0000000  0.0000000  1.0000000 )


      isym =  2     180 deg rotation - cart. axis [0,0,1]        

 cryst.   s( 2) = (     0          1         -1      )
                  (     1          0         -1      )
                  (     0          0         -1      )

 cart.    s( 2) = ( -1.0000000  0.0000000  0.0000000 )
                  (  0.0000000 -1.0000000  0.0000000 )
                  (  0.0000000 -0.0000000  1.0000000 )


      isym =  3     180 deg rotation - cart. axis [0,1,0]        

 cryst.   s( 3) = (     0         -1          1      )
                  (     0         -1          0      )
                  (     1         -1          0      )

 cart.    s( 3) = ( -1.0000000 -0.0000000 -0.0000000 )
                  (  0.0000000  1.0000000 -0.0000000 )
                  (  0.0000000  0.0000000 -1.0000000 )


      isym =  4     180 deg rotation - cart. axis [1,0,0]        

 cryst.   s( 4) = (    -1          0          0      )
                  (    -1          0          1      )
                  (    -1          1          0      )

 cart.    s( 4) = (  1.0000000  0.0000000 -0.0000000 )
                  ( -0.0000000 -1.0000000 -0.0000000 )
                  ( -0.0000000 -0.0000000 -1.0000000 )


      isym =  5     120 deg rotation - cart. axis [-1,-1,-1]     

 cryst.   s( 5) = (     0          0          1      )
                  (     1          0          0      )
                  (     0          1          0      )

 cart.    s( 5) = (  0.0000000  1.0000000 -0.0000000 )
                  (  0.0000000 -0.0000000  1.0000000 )
                  (  1.0000000 -0.0000000  0.0000000 )


      isym =  6     120 deg rotation - cart. axis [-1,1,1]       

 cryst.   s( 6) = (     1         -1          0      )
                  (     0         -1          1      )
                  (     0         -1          0      )

 cart.    s( 6) = ( -0.0000000 -1.0000000 -0.0000000 )
                  ( -0.0000000  0.0000000  1.0000000 )
                  ( -1.0000000  0.0000000  0.0000000 )


      isym =  7     120 deg rotation - cart. axis [1,1,-1]       

 cryst.   s( 7) = (    -1          1          0      )
                  (    -1          0          0      )
                  (    -1          0          1      )

 cart.    s( 7) = ( -0.0000000  1.0000000  0.0000000 )
                  ( -0.0000000 -0.0000000 -1.0000000 )
                  ( -1.0000000 -0.0000000 -0.0000000 )


      isym =  8     120 deg rotation - cart. axis [1,-1,1]       

 cryst.   s( 8) = (     0          0         -1      )
                  (     0          1         -1      )
                  (     1          0         -1      )

 cart.    s( 8) = (  0.0000000 -1.0000000  0.0000000 )
                  (  0.0000000  0.0000000 -1.0000000 )
                  (  1.0000000  0.0000000 -0.0000000 )


      isym =  9     120 deg rotation - cart. axis [1,1,1]        

 cryst.   s( 9) = (     0          1          0      )
                  (     0          0          1      )
                  (     1          0          0      )

 cart.    s( 9) = ( -0.0000000  0.0000000  1.0000000 )
                  (  1.0000000  0.0000000 -0.0000000 )
                  (  0.0000000  1.0000000 -0.0000000 )


      isym = 10     120 deg rotation - cart. axis [-1,1,-1]      

 cryst.   s(10) = (    -1          0          1      )
                  (    -1          1          0      )
                  (    -1          0          0      )

 cart.    s(10) = (  0.0000000 -0.0000000  1.0000000 )
                  ( -1.0000000 -0.0000000 -0.0000000 )
                  ( -0.0000000 -1.0000000 -0.0000000 )


      isym = 11     120 deg rotation - cart. axis [1,-1,-1]      

 cryst.   s(11) = (     1          0         -1      )
                  (     0          0         -1      )
                  (     0          1         -1      )

 cart.    s(11) = (  0.0000000  0.0000000 -1.0000000 )
                  ( -1.0000000  0.0000000  0.0000000 )
                  ( -0.0000000  1.0000000  0.0000000 )


      isym = 12     120 deg rotation - cart. axis [-1,-1,1]      

 cryst.   s(12) = (     0         -1          0      )
                  (     1         -1          0      )
                  (     0         -1          1      )

 cart.    s(12) = ( -0.0000000 -0.0000000 -1.0000000 )
                  (  1.0000000 -0.0000000  0.0000000 )
                  (  0.0000000 -1.0000000  0.0000000 )


      isym = 13     inv. 180 deg rotation - cart. axis [1,1,0]   

 cryst.   s(13) = (     1          0         -1      )
                  (     0          1         -1      )
                  (     0          0         -1      )

 cart.    s(13) = (  0.0000000 -1.0000000  0.0000000 )
                  ( -1.0000000  0.0000000  0.0000000 )
                  ( -0.0000000  0.0000000  1.0000000 )


      isym = 14     inv. 180 deg rotation - cart. axis [1,-1,0]  

 cryst.   s(14) = (     0          1          0      )
                  (     1          0          0      )
                  (     0          0          1      )

 cart.    s(14) = ( -0.0000000  1.0000000  0.0000000 )
                  (  1.0000000 -0.0000000  0.0000000 )
                  (  0.0000000 -0.0000000  1.0000000 )


      isym = 15     inv.  90 deg rotation - cart. axis [0,0,-1]  

 cryst.   s(15) = (     0         -1          0      )
                  (     0         -1          1      )
                  (     1         -1          0      )

 cart.    s(15) = ( -0.0000000 -1.0000000 -0.0000000 )
                  (  1.0000000  0.0000000 -0.0000000 )
                  (  0.0000000  0.0000000 -1.0000000 )


      isym = 16     inv.  90 deg rotation - cart. axis [0,0,1]   

 cryst.   s(16) = (    -1          0          1      )
                  (    -1          0          0      )
                  (    -1          1          0      )

 cart.    s(16) = (  0.0000000  1.0000000 -0.0000000 )
                  ( -1.0000000 -0.0000000 -0.0000000 )
                  ( -0.0000000 -0.0000000 -1.0000000 )


      isym = 17     inv. 180 deg rotation - cart. axis [1,0,1]   

 cryst.   s(17) = (     1         -1          0      )
                  (     0         -1          0      )
                  (     0         -1          1      )

 cart.    s(17) = ( -0.0000000 -0.0000000 -1.0000000 )
                  ( -0.0000000  1.0000000  0.0000000 )
                  ( -1.0000000  0.0000000  0.0000000 )


      isym = 18     inv. 180 deg rotation - cart. axis [-1,0,1]  

 cryst.   s(18) = (     0          0          1      )
                  (     0          1          0      )
                  (     1          0          0      )

 cart.    s(18) = (  0.0000000 -0.0000000  1.0000000 )
                  (  0.0000000  1.0000000 -0.0000000 )
                  (  1.0000000  0.0000000 -0.0000000 )


      isym = 19     inv.  90 deg rotation - cart. axis [0,1,0]   

 cryst.   s(19) = (     0          0         -1      )
                  (     1          0         -1      )
                  (     0          1         -1      )

 cart.    s(19) = (  0.0000000  0.0000000 -1.0000000 )
                  (  0.0000000 -1.0000000  0.0000000 )
                  (  1.0000000 -0.0000000  0.0000000 )


      isym = 20     inv.  90 deg rotation - cart. axis [0,-1,0]  

 cryst.   s(20) = (    -1          1          0      )
                  (    -1          0          1      )
                  (    -1          0          0      )

 cart.    s(20) = ( -0.0000000  0.0000000  1.0000000 )
                  ( -0.0000000 -1.0000000 -0.0000000 )
                  ( -1.0000000 -0.0000000 -0.0000000 )


      isym = 21     inv. 180 deg rotation - cart. axis [0,1,1]   

 cryst.   s(21) = (    -1          0          0      )
                  (    -1          1          0      )
                  (    -1          0          1      )

 cart.    s(21) = (  1.0000000 -0.0000000  0.0000000 )
                  ( -0.0000000 -0.0000000 -1.0000000 )
                  ( -0.0000000 -1.0000000 -0.0000000 )


      isym = 22     inv. 180 deg rotation - cart. axis [0,1,-1]  

 cryst.   s(22) = (     1          0          0      )
                  (     0          0          1      )
                  (     0          1          0      )

 cart.    s(22) = (  1.0000000  0.0000000 -0.0000000 )
                  ( -0.0000000  0.0000000  1.0000000 )
                  ( -0.0000000  1.0000000  0.0000000 )


      isym = 23     inv.  90 deg rotation - cart. axis [-1,0,0]  

 cryst.   s(23) = (     0          1         -1      )
                  (     0          0         -1      )
                  (     1          0         -1      )

 cart.    s(23) = ( -1.0000000  0.0000000  0.0000000 )
                  (  0.0000000  0.0000000 -1.0000000 )
                  (  0.0000000  1.0000000 -0.0000000 )


      isym = 24     inv.  90 deg rotation - cart. axis [1,0,0]   

 cryst.   s(24) = (     0         -1          1      )
                  (     1         -1          0      )
                  (     0         -1          0      )

 cart.    s(24) = ( -1.0000000 -0.0000000 -0.0000000 )
                  (  0.0000000 -0.0000000  1.0000000 )
                  (  0.0000000 -1.0000000  0.0000000 )


   Cartesian axes

     site n.     atom                  positions (alat units)
         1           Hf  tau(   1) = (   0.3535534   0.3535534   0.3535534  )
         2           V   tau(   2) = (   0.7071068   0.0000000   0.0000000  )
         3           Cr  tau(   3) = (   0.0000000   0.0000000   0.0000000  )
         4           In  tau(   4) = (   0.3535534   0.3535534   1.0606602  )

   Crystallographic axes

     site n.     atom                  positions (cryst. coord.)
         1           Hf  tau(   1) = (  0.2500000  0.2500000  0.2500000  )
         2           V   tau(   2) = ( -0.5000000  0.5000000  0.5000000  )
         3           Cr  tau(   3) = (  0.0000000  0.0000000  0.0000000  )
         4           In  tau(   4) = (  0.7500000  0.7500000 -0.2500000  )

     number of k points=    72  Marzari-Vanderbilt smearing, width (Ry)=  0.0100
                       cart. coord. in units 2pi/alat
        k(    1) = (   0.0000000   0.0000000   0.0000000), wk =   0.0005787
        k(    2) = (   0.0589256   0.0589256  -0.0589256), wk =   0.0046296
        k(    3) = (   0.1178511   0.1178511  -0.1178511), wk =   0.0046296
        k(    4) = (   0.1767767   0.1767767  -0.1767767), wk =   0.0046296
        k(    5) = (   0.2357023   0.2357023  -0.2357023), wk =   0.0046296
        k(    6) = (   0.2946278   0.2946278  -0.2946278), wk =   0.0046296
        k(    7) = (  -0.3535534  -0.3535534   0.3535534), wk =   0.0023148
        k(    8) = (   0.1178511   0.0000000  -0.0000000), wk =   0.0034722
        k(    9) = (   0.1767767   0.0589256  -0.0589256), wk =   0.0138889
        k(   10) = (   0.2357023   0.1178511  -0.1178511), wk =   0.0138889
        k(   11) = (   0.2946278   0.1767767  -0.1767767), wk =   0.0138889
        k(   12) = (   0.3535534   0.2357023  -0.2357023), wk =   0.0138889
        k(   13) = (  -0.2946278  -0.4124790   0.4124790), wk =   0.0138889
        k(   14) = (  -0.2357023  -0.3535534   0.3535534), wk =   0.0138889
        k(   15) = (  -0.1767767  -0.2946278   0.2946278), wk =   0.0138889
        k(   16) = (  -0.1178511  -0.2357023   0.2357023), wk =   0.0138889
        k(   17) = (  -0.0589256  -0.1767767   0.1767767), wk =   0.0138889
        k(   18) = (  -0.0000000  -0.1178511   0.1178511), wk =   0.0069444
        k(   19) = (   0.2357023   0.0000000  -0.0000000), wk =   0.0034722
        k(   20) = (   0.2946278   0.0589256  -0.0589256), wk =   0.0138889
        k(   21) = (   0.3535534   0.1178511  -0.1178511), wk =   0.0138889
        k(   22) = (   0.4124790   0.1767767  -0.1767767), wk =   0.0138889
        k(   23) = (  -0.2357023  -0.4714045   0.4714045), wk =   0.0138889
        k(   24) = (  -0.1767767  -0.4124790   0.4124790), wk =   0.0138889
        k(   25) = (  -0.1178511  -0.3535534   0.3535534), wk =   0.0138889
        k(   26) = (  -0.0589256  -0.2946278   0.2946278), wk =   0.0138889
        k(   27) = (   0.0000000  -0.2357023   0.2357023), wk =   0.0069444
        k(   28) = (   0.3535534   0.0000000   0.0000000), wk =   0.0034722
        k(   29) = (   0.4124790   0.0589256  -0.0589256), wk =   0.0138889
        k(   30) = (   0.4714045   0.1178511  -0.1178511), wk =   0.0138889
        k(   31) = (  -0.1767767  -0.5303301   0.5303301), wk =   0.0138889
        k(   32) = (  -0.1178511  -0.4714045   0.4714045), wk =   0.0138889
        k(   33) = (  -0.0589256  -0.4124790   0.4124790), wk =   0.0138889
        k(   34) = (   0.0000000  -0.3535534   0.3535534), wk =   0.0069444
        k(   35) = (   0.4714045   0.0000000  -0.0000000), wk =   0.0034722
        k(   36) = (   0.5303301   0.0589256  -0.0589256), wk =   0.0138889
        k(   37) = (  -0.1178511  -0.5892557   0.5892557), wk =   0.0138889
        k(   38) = (  -0.0589256  -0.5303301   0.5303301), wk =   0.0138889
        k(   39) = (  -0.0000000  -0.4714045   0.4714045), wk =   0.0069444
        k(   40) = (   0.5892557   0.0000000  -0.0000000), wk =   0.0034722
        k(   41) = (  -0.0589256  -0.6481812   0.6481812), wk =   0.0138889
        k(   42) = (   0.0000000  -0.5892557   0.5892557), wk =   0.0069444
        k(   43) = (  -0.7071068   0.0000000   0.0000000), wk =   0.0017361
        k(   44) = (   0.2357023   0.1178511   0.0000000), wk =   0.0138889
        k(   45) = (   0.2946278   0.1767767  -0.0589256), wk =   0.0277778
        k(   46) = (   0.3535534   0.2357023  -0.1178511), wk =   0.0277778
        k(   47) = (  -0.2946278  -0.4124790   0.5303301), wk =   0.0277778
        k(   48) = (  -0.2357023  -0.3535534   0.4714045), wk =   0.0138889
        k(   49) = (   0.3535534   0.1178511  -0.0000000), wk =   0.0138889
        k(   50) = (   0.4124790   0.1767767  -0.0589256), wk =   0.0277778
        k(   51) = (  -0.2357023  -0.4714045   0.5892557), wk =   0.0277778
        k(   52) = (  -0.1767767  -0.4124790   0.5303301), wk =   0.0277778
        k(   53) = (  -0.1178511  -0.3535534   0.4714045), wk =   0.0277778
        k(   54) = (  -0.0589256  -0.2946278   0.4124790), wk =   0.0277778
        k(   55) = (   0.0000000  -0.2357023   0.3535534), wk =   0.0138889
        k(   56) = (   0.4714045   0.1178511  -0.0000000), wk =   0.0138889
        k(   57) = (  -0.1767767  -0.5303301   0.6481812), wk =   0.0277778
        k(   58) = (  -0.1178511  -0.4714045   0.5892557), wk =   0.0277778
        k(   59) = (  -0.0589256  -0.4124790   0.5303301), wk =   0.0277778
        k(   60) = (   0.0000000  -0.3535534   0.4714045), wk =   0.0138889
        k(   61) = (  -0.1178511  -0.5892557   0.7071068), wk =   0.0138889
        k(   62) = (  -0.0589256  -0.5303301   0.6481812), wk =   0.0277778
        k(   63) = (  -0.0000000  -0.4714045   0.5892557), wk =   0.0138889
        k(   64) = (  -0.7071068   0.1178511  -0.0000000), wk =   0.0069444
        k(   65) = (  -0.2357023  -0.4714045   0.7071068), wk =   0.0138889
        k(   66) = (  -0.1767767  -0.4124790   0.6481812), wk =   0.0277778
        k(   67) = (  -0.1178511  -0.3535534   0.5892557), wk =   0.0138889
        k(   68) = (  -0.1178511  -0.4714045   0.7071068), wk =   0.0138889
        k(   69) = (  -0.0589256  -0.4124790   0.6481812), wk =   0.0277778
        k(   70) = (   0.0000000  -0.3535534   0.5892557), wk =   0.0138889
        k(   71) = (  -0.7071068   0.2357023   0.0000000), wk =   0.0069444
        k(   72) = (  -0.7071068   0.3535534   0.0000000), wk =   0.0034722

                       cryst. coord.
        k(    1) = (   0.0000000   0.0000000   0.0000000), wk =   0.0005787
        k(    2) = (   0.0000000   0.0000000   0.0833333), wk =   0.0046296
        k(    3) = (   0.0000000   0.0000000   0.1666667), wk =   0.0046296
        k(    4) = (   0.0000000   0.0000000   0.2500000), wk =   0.0046296
        k(    5) = (   0.0000000   0.0000000   0.3333333), wk =   0.0046296
        k(    6) = (  -0.0000000  -0.0000000   0.4166667), wk =   0.0046296
        k(    7) = (  -0.0000000  -0.0000000  -0.5000000), wk =   0.0023148
        k(    8) = (  -0.0000000   0.0833333   0.0833333), wk =   0.0034722
        k(    9) = (   0.0000000   0.0833333   0.1666667), wk =   0.0138889
        k(   10) = (  -0.0000000   0.0833333   0.2500000), wk =   0.0138889
        k(   11) = (   0.0000000   0.0833333   0.3333333), wk =   0.0138889
        k(   12) = (  -0.0000000   0.0833333   0.4166667), wk =   0.0138889
        k(   13) = (  -0.0000000   0.0833333  -0.5000000), wk =   0.0138889
        k(   14) = (  -0.0000000   0.0833333  -0.4166667), wk =   0.0138889
        k(   15) = (  -0.0000000   0.0833333  -0.3333333), wk =   0.0138889
        k(   16) = (  -0.0000000   0.0833333  -0.2500000), wk =   0.0138889
        k(   17) = (  -0.0000000   0.0833333  -0.1666667), wk =   0.0138889
        k(   18) = (   0.0000000   0.0833333  -0.0833333), wk =   0.0069444
        k(   19) = (  -0.0000000   0.1666667   0.1666667), wk =   0.0034722
        k(   20) = (  -0.0000000   0.1666667   0.2500000), wk =   0.0138889
        k(   21) = (   0.0000000   0.1666667   0.3333333), wk =   0.0138889
        k(   22) = (  -0.0000000   0.1666667   0.4166667), wk =   0.0138889
        k(   23) = (  -0.0000000   0.1666667  -0.5000000), wk =   0.0138889
        k(   24) = (  -0.0000000   0.1666667  -0.4166667), wk =   0.0138889
        k(   25) = (  -0.0000000   0.1666667  -0.3333333), wk =   0.0138889
        k(   26) = (   0.0000000   0.1666667  -0.2500000), wk =   0.0138889
        k(   27) = (  -0.0000000   0.1666667  -0.1666667), wk =   0.0069444
        k(   28) = (   0.0000000   0.2500000   0.2500000), wk =   0.0034722
        k(   29) = (   0.0000000   0.2500000   0.3333333), wk =   0.0138889
        k(   30) = (  -0.0000000   0.2500000   0.4166667), wk =   0.0138889
        k(   31) = (   0.0000000   0.2500000  -0.5000000), wk =   0.0138889
        k(   32) = (  -0.0000000   0.2500000  -0.4166667), wk =   0.0138889
        k(   33) = (  -0.0000000   0.2500000  -0.3333333), wk =   0.0138889
        k(   34) = (  -0.0000000   0.2500000  -0.2500000), wk =   0.0069444
        k(   35) = (  -0.0000000   0.3333333   0.3333333), wk =   0.0034722
        k(   36) = (  -0.0000000   0.3333333   0.4166667), wk =   0.0138889
        k(   37) = (   0.0000000   0.3333333  -0.5000000), wk =   0.0138889
        k(   38) = (  -0.0000000   0.3333333  -0.4166667), wk =   0.0138889
        k(   39) = (   0.0000000   0.3333333  -0.3333333), wk =   0.0069444
        k(   40) = (   0.0000000   0.4166667   0.4166667), wk =   0.0034722
        k(   41) = (  -0.0000000   0.4166667  -0.5000000), wk =   0.0138889
        k(   42) = (   0.0000000   0.4166667  -0.4166667), wk =   0.0069444
        k(   43) = (   0.0000000  -0.5000000  -0.5000000), wk =   0.0017361
        k(   44) = (   0.0833333   0.1666667   0.2500000), wk =   0.0138889
        k(   45) = (   0.0833333   0.1666667   0.3333333), wk =   0.0277778
        k(   46) = (   0.0833333   0.1666667   0.4166667), wk =   0.0277778
        k(   47) = (   0.0833333   0.1666667  -0.5000000), wk =   0.0277778
        k(   48) = (   0.0833333   0.1666667  -0.4166667), wk =   0.0138889
        k(   49) = (   0.0833333   0.2500000   0.3333333), wk =   0.0138889
        k(   50) = (   0.0833333   0.2500000   0.4166667), wk =   0.0277778
        k(   51) = (   0.0833333   0.2500000  -0.5000000), wk =   0.0277778
        k(   52) = (   0.0833333   0.2500000  -0.4166667), wk =   0.0277778
        k(   53) = (   0.0833333   0.2500000  -0.3333333), wk =   0.0277778
        k(   54) = (   0.0833333   0.2500000  -0.2500000), wk =   0.0277778
        k(   55) = (   0.0833333   0.2500000  -0.1666667), wk =   0.0138889
        k(   56) = (   0.0833333   0.3333333   0.4166667), wk =   0.0138889
        k(   57) = (   0.0833333   0.3333333  -0.5000000), wk =   0.0277778
        k(   58) = (   0.0833333   0.3333333  -0.4166667), wk =   0.0277778
        k(   59) = (   0.0833333   0.3333333  -0.3333333), wk =   0.0277778
        k(   60) = (   0.0833333   0.3333333  -0.2500000), wk =   0.0138889
        k(   61) = (   0.0833333   0.4166667  -0.5000000), wk =   0.0138889
        k(   62) = (   0.0833333   0.4166667  -0.4166667), wk =   0.0277778
        k(   63) = (   0.0833333   0.4166667  -0.3333333), wk =   0.0138889
        k(   64) = (   0.0833333  -0.5000000  -0.4166667), wk =   0.0069444
        k(   65) = (   0.1666667   0.3333333  -0.5000000), wk =   0.0138889
        k(   66) = (   0.1666667   0.3333333  -0.4166667), wk =   0.0277778
        k(   67) = (   0.1666667   0.3333333  -0.3333333), wk =   0.0138889
        k(   68) = (   0.1666667   0.4166667  -0.4166667), wk =   0.0138889
        k(   69) = (   0.1666667   0.4166667  -0.3333333), wk =   0.0277778
        k(   70) = (   0.1666667   0.4166667  -0.2500000), wk =   0.0138889
        k(   71) = (   0.1666667  -0.5000000  -0.3333333), wk =   0.0069444
        k(   72) = (   0.2500000  -0.5000000  -0.2500000), wk =   0.0034722

     Dense  grid:    58887 G-vectors     FFT dimensions: (  60,  60,  60)

     Smooth grid:    20875 G-vectors     FFT dimensions: (  40,  40,  40)

     Dynamical RAM for                 wfc:       1.24 MB

     Dynamical RAM for     wfc (w. buffer):     179.43 MB

     Dynamical RAM for           str. fact:       3.59 MB

     Dynamical RAM for           local pot:       0.00 MB

     Dynamical RAM for          nlocal pot:       3.43 MB

     Dynamical RAM for                qrad:      15.41 MB

     Dynamical RAM for          rho,v,vnew:      15.28 MB

     Dynamical RAM for               rhoin:       5.09 MB

     Dynamical RAM for            rho*nmix:      28.75 MB

     Dynamical RAM for           G-vectors:       3.53 MB

     Dynamical RAM for          h,s,v(r/c):       0.18 MB

     Dynamical RAM for          <psi|beta>:       0.04 MB

     Dynamical RAM for                 psi:       2.47 MB

     Dynamical RAM for                hpsi:       2.47 MB

     Dynamical RAM for                spsi:       2.47 MB

     Dynamical RAM for      wfcinit/wfcrot:       2.50 MB

     Dynamical RAM for           addusdens:     179.71 MB

     Dynamical RAM for          addusforce:     179.72 MB

     Dynamical RAM for         addusstress:     203.52 MB

     Estimated static dynamical RAM per process >     240.15 MB

     Estimated max dynamical RAM per process >     472.42 MB

     Atomic positions and unit cell read from directory:
     ./out/aiida.save/
 

     Check: negative core charge=   -0.000002
     Generating pointlists ...
     new r_m :   0.2526 (alat units)  2.1535 (a.u.) for type    1
     new r_m :   0.2526 (alat units)  2.1535 (a.u.) for type    2
     new r_m :   0.2526 (alat units)  2.1535 (a.u.) for type    3
     new r_m :   0.2526 (alat units)  2.1535 (a.u.) for type    4

     The initial density is read from file :
     ./out/aiida.save/charge-density


     negative rho (up, down):  2.410E-04 2.463E-03
     Starting wfcs from file

     total cpu time spent up to now is        3.4 secs

     per-process dynamical memory:   416.1 Mb

     Self-consistent Calculation
[tb_dev] Currently allocated     3.05E-05 Mbytes, locked:    0 /   2
[tb_pin] Currently allocated     0.00E+00 Mbytes, locked:    0 /   0

     iteration #  1     ecut=    50.00 Ry     beta= 0.20
     Davidson diagonalization with overlap

---- Real-time Memory Report at c_bands before calling an iterative solver
           538 MiB given to the printing process from OS
           409 MiB allocation reported by mallinfo(arena+hblkhd)
         59865 MiB available memory on the node where the printing process lives
     GPU memory used/free/total (MiB): 642 / 15638 / 16280
------------------
     ethr =  1.00E-05,  avg # of iterations =  1.9

     negative rho (up, down):  2.546E-04 2.464E-03

     total cpu time spent up to now is        7.0 secs

     total energy              =    -577.47581950 Ry
     estimated scf accuracy    <       0.01741565 Ry

     total magnetization       =     0.64 Bohr mag/cell
     absolute magnetization    =     3.81 Bohr mag/cell
[tb_dev] Currently allocated     1.13E+00 Mbytes, locked:    0 /   6
[tb_pin] Currently allocated     0.00E+00 Mbytes, locked:    0 /   0

     iteration #  2     ecut=    50.00 Ry     beta= 0.20
     Davidson diagonalization with overlap

---- Real-time Memory Report at c_bands before calling an iterative solver
          1098 MiB given to the printing process from OS
           887 MiB allocation reported by mallinfo(arena+hblkhd)
         58758 MiB available memory on the node where the printing process lives
     GPU memory used/free/total (MiB): 1122 / 15158 / 16280
------------------
     ethr =  3.35E-05,  avg # of iterations =  3.1

     negative rho (up, down):  2.603E-04 2.441E-03

     total cpu time spent up to now is       10.5 secs

     total energy              =    -577.47690115 Ry
     estimated scf accuracy    <       0.04791168 Ry

     total magnetization       =     0.38 Bohr mag/cell
     absolute magnetization    =     3.94 Bohr mag/cell
[tb_dev] Currently allocated     1.13E+00 Mbytes, locked:    0 /   6
[tb_pin] Currently allocated     0.00E+00 Mbytes, locked:    0 /   0

     iteration #  3     ecut=    50.00 Ry     beta= 0.20
     Davidson diagonalization with overlap

---- Real-time Memory Report at c_bands before calling an iterative solver
          1101 MiB given to the printing process from OS
           889 MiB allocation reported by mallinfo(arena+hblkhd)
         58758 MiB available memory on the node where the printing process lives
     GPU memory used/free/total (MiB): 1122 / 15158 / 16280
------------------
     ethr =  3.35E-05,  avg # of iterations =  1.2

     negative rho (up, down):  2.704E-04 2.445E-03

     total cpu time spent up to now is       13.0 secs

     total energy              =    -577.48220885 Ry
     estimated scf accuracy    <       0.01441965 Ry

     total magnetization       =     0.34 Bohr mag/cell
     absolute magnetization    =     4.10 Bohr mag/cell
[tb_dev] Currently allocated     1.13E+00 Mbytes, locked:    0 /   6
[tb_pin] Currently allocated     0.00E+00 Mbytes, locked:    0 /   0

     iteration #  4     ecut=    50.00 Ry     beta= 0.20
     Davidson diagonalization with overlap

---- Real-time Memory Report at c_bands before calling an iterative solver
          1103 MiB given to the printing process from OS
           890 MiB allocation reported by mallinfo(arena+hblkhd)
         58759 MiB available memory on the node where the printing process lives
     GPU memory used/free/total (MiB): 1122 / 15158 / 16280
------------------
     ethr =  2.77E-05,  avg # of iterations =  1.0

     negative rho (up, down):  1.860E-04 2.423E-03

     total cpu time spent up to now is       15.4 secs

     total energy              =    -577.44563765 Ry
     estimated scf accuracy    <       0.01165745 Ry

     total magnetization       =     0.23 Bohr mag/cell
     absolute magnetization    =     4.26 Bohr mag/cell
[tb_dev] Currently allocated     1.13E+00 Mbytes, locked:    0 /   6
[tb_pin] Currently allocated     0.00E+00 Mbytes, locked:    0 /   0

     iteration #  5     ecut=    50.00 Ry     beta= 0.20
     Davidson diagonalization with overlap

---- Real-time Memory Report at c_bands before calling an iterative solver
          1104 MiB given to the printing process from OS
           892 MiB allocation reported by mallinfo(arena+hblkhd)
         58759 MiB available memory on the node where the printing process lives
     GPU memory used/free/total (MiB): 1122 / 15158 / 16280
------------------
     ethr =  2.24E-05,  avg # of iterations =  3.1

     negative rho (up, down):  1.340E-04 2.526E-03

     total cpu time spent up to now is       18.9 secs

     total energy              =    -577.44943430 Ry
     estimated scf accuracy    <       0.00939343 Ry

     total magnetization       =     1.61 Bohr mag/cell
     absolute magnetization    =     2.65 Bohr mag/cell
[tb_dev] Currently allocated     1.13E+00 Mbytes, locked:    0 /   6
[tb_pin] Currently allocated     0.00E+00 Mbytes, locked:    0 /   0

     iteration #  6     ecut=    50.00 Ry     beta= 0.20
     Davidson diagonalization with overlap

---- Real-time Memory Report at c_bands before calling an iterative solver
          1106 MiB given to the printing process from OS
           893 MiB allocation reported by mallinfo(arena+hblkhd)
         58760 MiB available memory on the node where the printing process lives
     GPU memory used/free/total (MiB): 1136 / 15144 / 16280
------------------
     ethr =  1.81E-05,  avg # of iterations =  5.3

     negative rho (up, down):  1.347E-04 2.503E-03

     total cpu time spent up to now is       23.5 secs

     total energy              =    -577.45752432 Ry
     estimated scf accuracy    <       0.00480384 Ry

     total magnetization       =     2.57 Bohr mag/cell
     absolute magnetization    =     2.90 Bohr mag/cell
[tb_dev] Currently allocated     1.13E+00 Mbytes, locked:    0 /   6
[tb_pin] Currently allocated     0.00E+00 Mbytes, locked:    0 /   0

     iteration #  7     ecut=    50.00 Ry     beta= 0.20
     Davidson diagonalization with overlap

---- Real-time Memory Report at c_bands before calling an iterative solver
          1107 MiB given to the printing process from OS
           894 MiB allocation reported by mallinfo(arena+hblkhd)
         58761 MiB available memory on the node where the printing process lives
     GPU memory used/free/total (MiB): 1136 / 15144 / 16280
------------------
     ethr =  9.24E-06,  avg # of iterations =  2.5

     negative rho (up, down):  8.043E-05 3.064E-03

     total cpu time spent up to now is       26.5 secs

     total energy              =    -577.44865101 Ry
     estimated scf accuracy    <       0.00300105 Ry

     total magnetization       =     2.52 Bohr mag/cell
     absolute magnetization    =     2.87 Bohr mag/cell
[tb_dev] Currently allocated     1.13E+00 Mbytes, locked:    0 /   6
[tb_pin] Currently allocated     0.00E+00 Mbytes, locked:    0 /   0

     iteration #  8     ecut=    50.00 Ry     beta= 0.20
     Davidson diagonalization with overlap

---- Real-time Memory Report at c_bands before calling an iterative solver
          1109 MiB given to the printing process from OS
           896 MiB allocation reported by mallinfo(arena+hblkhd)
         58758 MiB available memory on the node where the printing process lives
     GPU memory used/free/total (MiB): 1136 / 15144 / 16280
------------------
     ethr =  5.77E-06,  avg # of iterations =  6.9

     negative rho (up, down):  8.380E-05 3.028E-03

     total cpu time spent up to now is       32.2 secs

     total energy              =    -577.45530098 Ry
     estimated scf accuracy    <       0.00655179 Ry

     total magnetization       =     3.26 Bohr mag/cell
     absolute magnetization    =     3.45 Bohr mag/cell
[tb_dev] Currently allocated     1.13E+00 Mbytes, locked:    0 /   6
[tb_pin] Currently allocated     0.00E+00 Mbytes, locked:    0 /   0

     iteration #  9     ecut=    50.00 Ry     beta= 0.20
     Davidson diagonalization with overlap

---- Real-time Memory Report at c_bands before calling an iterative solver
          1111 MiB given to the printing process from OS
           898 MiB allocation reported by mallinfo(arena+hblkhd)
         58757 MiB available memory on the node where the printing process lives
     GPU memory used/free/total (MiB): 1136 / 15144 / 16280
------------------
     ethr =  5.77E-06,  avg # of iterations =  1.0

     negative rho (up, down):  4.252E-05 3.468E-03

     total cpu time spent up to now is       34.7 secs

     total energy              =    -577.45064854 Ry
     estimated scf accuracy    <       0.00650075 Ry

     total magnetization       =     3.23 Bohr mag/cell
     absolute magnetization    =     3.42 Bohr mag/cell
[tb_dev] Currently allocated     1.13E+00 Mbytes, locked:    0 /   6
[tb_pin] Currently allocated     0.00E+00 Mbytes, locked:    0 /   0

     iteration # 10     ecut=    50.00 Ry     beta= 0.20
     Davidson diagonalization with overlap

---- Real-time Memory Report at c_bands before calling an iterative solver
          1111 MiB given to the printing process from OS
           898 MiB allocation reported by mallinfo(arena+hblkhd)
         58757 MiB available memory on the node where the printing process lives
     GPU memory used/free/total (MiB): 1136 / 15144 / 16280
------------------
     ethr =  5.77E-06,  avg # of iterations =  4.3

     negative rho (up, down):  2.924E-04 2.503E-03

     total cpu time spent up to now is       39.0 secs

     total energy              =    -577.36037950 Ry
     estimated scf accuracy    <       0.00812103 Ry

     total magnetization       =     3.60 Bohr mag/cell
     absolute magnetization    =     3.76 Bohr mag/cell
[tb_dev] Currently allocated     1.13E+00 Mbytes, locked:    0 /   6
[tb_pin] Currently allocated     0.00E+00 Mbytes, locked:    0 /   0

     iteration # 11     ecut=    50.00 Ry     beta= 0.20
     Davidson diagonalization with overlap

---- Real-time Memory Report at c_bands before calling an iterative solver
          1112 MiB given to the printing process from OS
           898 MiB allocation reported by mallinfo(arena+hblkhd)
         58756 MiB available memory on the node where the printing process lives
     GPU memory used/free/total (MiB): 1136 / 15144 / 16280
------------------
     c_bands:  1 eigenvalues not converged
     ethr =  5.77E-06,  avg # of iterations = 10.8

     negative rho (up, down):  2.918E-04 2.502E-03

     total cpu time spent up to now is       47.2 secs

     total energy              =    -577.49077126 Ry
     estimated scf accuracy    <       0.03365492 Ry

     total magnetization       =     0.07 Bohr mag/cell
     absolute magnetization    =     4.70 Bohr mag/cell
[tb_dev] Currently allocated     1.13E+00 Mbytes, locked:    0 /   6
[tb_pin] Currently allocated     0.00E+00 Mbytes, locked:    0 /   0

     iteration # 12     ecut=    50.00 Ry     beta= 0.20
     Davidson diagonalization with overlap

---- Real-time Memory Report at c_bands before calling an iterative solver
          1112 MiB given to the printing process from OS
           898 MiB allocation reported by mallinfo(arena+hblkhd)
         58757 MiB available memory on the node where the printing process lives
     GPU memory used/free/total (MiB): 1136 / 15144 / 16280
------------------
     ethr =  5.77E-06,  avg # of iterations =  1.1

     negative rho (up, down):  2.434E-04 2.447E-03

     total cpu time spent up to now is       49.6 secs

     total energy              =    -577.46988058 Ry
     estimated scf accuracy    <       0.03351350 Ry

     total magnetization       =     0.07 Bohr mag/cell
     absolute magnetization    =     4.69 Bohr mag/cell
[tb_dev] Currently allocated     1.13E+00 Mbytes, locked:    0 /   6
[tb_pin] Currently allocated     0.00E+00 Mbytes, locked:    0 /   0

     iteration # 13     ecut=    50.00 Ry     beta= 0.20
     Davidson diagonalization with overlap

---- Real-time Memory Report at c_bands before calling an iterative solver
          1112 MiB given to the printing process from OS
           898 MiB allocation reported by mallinfo(arena+hblkhd)
         58755 MiB available memory on the node where the printing process lives
     GPU memory used/free/total (MiB): 1136 / 15144 / 16280
------------------
     ethr =  5.77E-06,  avg # of iterations =  3.9

     negative rho (up, down):  1.688E-04 2.370E-03

     total cpu time spent up to now is       53.6 secs

     total energy              =    -577.44372063 Ry
     estimated scf accuracy    <       0.01144726 Ry

     total magnetization       =     0.56 Bohr mag/cell
     absolute magnetization    =     3.86 Bohr mag/cell
[tb_dev] Currently allocated     1.13E+00 Mbytes, locked:    0 /   6
[tb_pin] Currently allocated     0.00E+00 Mbytes, locked:    0 /   0

     iteration # 14     ecut=    50.00 Ry     beta= 0.20
     Davidson diagonalization with overlap

---- Real-time Memory Report at c_bands before calling an iterative solver
          1112 MiB given to the printing process from OS
           898 MiB allocation reported by mallinfo(arena+hblkhd)
         58757 MiB available memory on the node where the printing process lives
     GPU memory used/free/total (MiB): 1136 / 15144 / 16280
------------------
     c_bands:  1 eigenvalues not converged
     ethr =  5.77E-06,  avg # of iterations =  7.7

     negative rho (up, down):  7.407E-04 2.545E-03

     total cpu time spent up to now is       60.0 secs

     total energy              =    -577.42939861 Ry
     estimated scf accuracy    <       0.00773051 Ry

     total magnetization       =     1.80 Bohr mag/cell
     absolute magnetization    =     2.50 Bohr mag/cell
[tb_dev] Currently allocated     1.13E+00 Mbytes, locked:    0 /   6
[tb_pin] Currently allocated     0.00E+00 Mbytes, locked:    0 /   0

     iteration # 15     ecut=    50.00 Ry     beta= 0.20
     Davidson diagonalization with overlap

---- Real-time Memory Report at c_bands before calling an iterative solver
          1113 MiB given to the printing process from OS
           898 MiB allocation reported by mallinfo(arena+hblkhd)
         58757 MiB available memory on the node where the printing process lives
     GPU memory used/free/total (MiB): 1136 / 15144 / 16280
------------------
     c_bands:  1 eigenvalues not converged
     ethr =  5.77E-06,  avg # of iterations =  9.3
     Minimization algorithm failed to find Fermi energy: reverting to bisection
     Possible cause: smearing is larger than the electronic band-gap.

     negative rho (up, down):  2.419E-04 2.446E-03

     total cpu time spent up to now is       67.4 secs

     total energy              =    -577.46055976 Ry
     estimated scf accuracy    <       0.08349860 Ry

     total magnetization       =     0.03 Bohr mag/cell
     absolute magnetization    =     5.19 Bohr mag/cell
[tb_dev] Currently allocated     1.13E+00 Mbytes, locked:    0 /   6
[tb_pin] Currently allocated     0.00E+00 Mbytes, locked:    0 /   0

     iteration # 16     ecut=    50.00 Ry     beta= 0.20
     Davidson diagonalization with overlap

---- Real-time Memory Report at c_bands before calling an iterative solver
          1113 MiB given to the printing process from OS
           898 MiB allocation reported by mallinfo(arena+hblkhd)
         58758 MiB available memory on the node where the printing process lives
     GPU memory used/free/total (MiB): 1136 / 15144 / 16280
------------------
     ethr =  5.77E-06,  avg # of iterations =  6.2

     negative rho (up, down):  1.923E-04 2.401E-03

     total cpu time spent up to now is       72.8 secs

     total energy              =    -577.45624738 Ry
     estimated scf accuracy    <       0.01516276 Ry

     total magnetization       =     0.61 Bohr mag/cell
     absolute magnetization    =     3.83 Bohr mag/cell
[tb_dev] Currently allocated     1.13E+00 Mbytes, locked:    0 /   6
[tb_pin] Currently allocated     0.00E+00 Mbytes, locked:    0 /   0

     iteration # 17     ecut=    50.00 Ry     beta= 0.20
     Davidson diagonalization with overlap

---- Real-time Memory Report at c_bands before calling an iterative solver
          1113 MiB given to the printing process from OS
           898 MiB allocation reported by mallinfo(arena+hblkhd)
         58758 MiB available memory on the node where the printing process lives
     GPU memory used/free/total (MiB): 1136 / 15144 / 16280
------------------
     ethr =  5.77E-06,  avg # of iterations =  5.6

     negative rho (up, down):  1.304E-04 2.482E-03

     total cpu time spent up to now is       77.8 secs

     total energy              =    -577.44679282 Ry
     estimated scf accuracy    <       0.00666026 Ry

     total magnetization       =     1.55 Bohr mag/cell
     absolute magnetization    =     2.74 Bohr mag/cell
[tb_dev] Currently allocated     1.13E+00 Mbytes, locked:    0 /   6
[tb_pin] Currently allocated     0.00E+00 Mbytes, locked:    0 /   0

     iteration # 18     ecut=    50.00 Ry     beta= 0.20
     Davidson diagonalization with overlap

---- Real-time Memory Report at c_bands before calling an iterative solver
          1113 MiB given to the printing process from OS
           898 MiB allocation reported by mallinfo(arena+hblkhd)
         58759 MiB available memory on the node where the printing process lives
     GPU memory used/free/total (MiB): 1136 / 15144 / 16280
------------------
     c_bands:  1 eigenvalues not converged
     ethr =  5.77E-06,  avg # of iterations =  7.3

     negative rho (up, down):  1.461E-04 2.340E-03

     total cpu time spent up to now is       83.6 secs

     total energy              =    -577.45746596 Ry
     estimated scf accuracy    <       0.00857400 Ry

     total magnetization       =     2.68 Bohr mag/cell
     absolute magnetization    =     2.97 Bohr mag/cell
[tb_dev] Currently allocated     1.13E+00 Mbytes, locked:    0 /   6
[tb_pin] Currently allocated     0.00E+00 Mbytes, locked:    0 /   0

     iteration # 19     ecut=    50.00 Ry     beta= 0.20
     Davidson diagonalization with overlap

---- Real-time Memory Report at c_bands before calling an iterative solver
          1113 MiB given to the printing process from OS
           898 MiB allocation reported by mallinfo(arena+hblkhd)
         58759 MiB available memory on the node where the printing process lives
     GPU memory used/free/total (MiB): 1136 / 15144 / 16280
------------------
     ethr =  5.77E-06,  avg # of iterations =  1.5

     negative rho (up, down):  1.189E-04 2.548E-03

     total cpu time spent up to now is       86.2 secs

     total energy              =    -577.45484683 Ry
     estimated scf accuracy    <       0.00140248 Ry

     total magnetization       =     2.35 Bohr mag/cell
     absolute magnetization    =     2.74 Bohr mag/cell
[tb_dev] Currently allocated     1.13E+00 Mbytes, locked:    0 /   6
[tb_pin] Currently allocated     0.00E+00 Mbytes, locked:    0 /   0

     iteration # 20     ecut=    50.00 Ry     beta= 0.20
     Davidson diagonalization with overlap

---- Real-time Memory Report at c_bands before calling an iterative solver
          1113 MiB given to the printing process from OS
           898 MiB allocation reported by mallinfo(arena+hblkhd)
         58759 MiB available memory on the node where the printing process lives
     GPU memory used/free/total (MiB): 1136 / 15144 / 16280
------------------
     ethr =  2.70E-06,  avg # of iterations =  4.5

     negative rho (up, down):  1.280E-04 2.449E-03

     total cpu time spent up to now is       90.6 secs

     total energy              =    -577.45694538 Ry
     estimated scf accuracy    <       0.00173762 Ry

     total magnetization       =     2.80 Bohr mag/cell
     absolute magnetization    =     3.05 Bohr mag/cell
[tb_dev] Currently allocated     1.13E+00 Mbytes, locked:    0 /   6
[tb_pin] Currently allocated     0.00E+00 Mbytes, locked:    0 /   0

     iteration # 21     ecut=    50.00 Ry     beta= 0.20
     Davidson diagonalization with overlap

---- Real-time Memory Report at c_bands before calling an iterative solver
          1113 MiB given to the printing process from OS
           898 MiB allocation reported by mallinfo(arena+hblkhd)
         58759 MiB available memory on the node where the printing process lives
     GPU memory used/free/total (MiB): 1136 / 15144 / 16280
------------------
     ethr =  2.70E-06,  avg # of iterations =  1.0

     negative rho (up, down):  1.137E-04 2.607E-03

     total cpu time spent up to now is       94.0 secs

     total energy              =    -577.45600383 Ry
     estimated scf accuracy    <       0.00148391 Ry

     total magnetization       =     2.66 Bohr mag/cell
     absolute magnetization    =     2.95 Bohr mag/cell
[tb_dev] Currently allocated     1.13E+00 Mbytes, locked:    0 /   6
[tb_pin] Currently allocated     0.00E+00 Mbytes, locked:    0 /   0

     iteration # 22     ecut=    50.00 Ry     beta= 0.20
     Davidson diagonalization with overlap

---- Real-time Memory Report at c_bands before calling an iterative solver
          1113 MiB given to the printing process from OS
           898 MiB allocation reported by mallinfo(arena+hblkhd)
         58760 MiB available memory on the node where the printing process lives
     GPU memory used/free/total (MiB): 1136 / 15144 / 16280
------------------
     ethr =  2.70E-06,  avg # of iterations =  1.4

     negative rho (up, down):  1.124E-04 2.632E-03

     total cpu time spent up to now is       96.6 secs

     total energy              =    -577.45644125 Ry
     estimated scf accuracy    <       0.00192519 Ry

     total magnetization       =     2.89 Bohr mag/cell
     absolute magnetization    =     3.11 Bohr mag/cell
[tb_dev] Currently allocated     1.13E+00 Mbytes, locked:    0 /   6
[tb_pin] Currently allocated     0.00E+00 Mbytes, locked:    0 /   0

     iteration # 23     ecut=    50.00 Ry     beta= 0.20
     Davidson diagonalization with overlap

---- Real-time Memory Report at c_bands before calling an iterative solver
          1113 MiB given to the printing process from OS
           898 MiB allocation reported by mallinfo(arena+hblkhd)
         58760 MiB available memory on the node where the printing process lives
     GPU memory used/free/total (MiB): 1136 / 15144 / 16280
------------------
     ethr =  2.70E-06,  avg # of iterations =  1.0

     negative rho (up, down):  1.030E-04 2.740E-03

     total cpu time spent up to now is       99.0 secs

     total energy              =    -577.45598375 Ry
     estimated scf accuracy    <       0.00266274 Ry

     total magnetization       =     2.93 Bohr mag/cell
     absolute magnetization    =     3.14 Bohr mag/cell
[tb_dev] Currently allocated     1.13E+00 Mbytes, locked:    0 /   6
[tb_pin] Currently allocated     0.00E+00 Mbytes, locked:    0 /   0

     iteration # 24     ecut=    50.00 Ry     beta= 0.20
     Davidson diagonalization with overlap

---- Real-time Memory Report at c_bands before calling an iterative solver
          1113 MiB given to the printing process from OS
           898 MiB allocation reported by mallinfo(arena+hblkhd)
         58760 MiB available memory on the node where the printing process lives
     GPU memory used/free/total (MiB): 1136 / 15144 / 16280
------------------
     ethr =  2.70E-06,  avg # of iterations =  1.3

     negative rho (up, down):  9.899E-05 2.787E-03

     total cpu time spent up to now is      101.5 secs

     total energy              =    -577.45604883 Ry
     estimated scf accuracy    <       0.00496632 Ry

     total magnetization       =     3.12 Bohr mag/cell
     absolute magnetization    =     3.29 Bohr mag/cell
[tb_dev] Currently allocated     1.13E+00 Mbytes, locked:    0 /   6
[tb_pin] Currently allocated     0.00E+00 Mbytes, locked:    0 /   0

     iteration # 25     ecut=    50.00 Ry     beta= 0.20
     Davidson diagonalization with overlap

---- Real-time Memory Report at c_bands before calling an iterative solver
          1113 MiB given to the printing process from OS
           898 MiB allocation reported by mallinfo(arena+hblkhd)
         58760 MiB available memory on the node where the printing process lives
     GPU memory used/free/total (MiB): 1136 / 15144 / 16280
------------------
     ethr =  2.70E-06,  avg # of iterations =  1.5

     negative rho (up, down):  1.183E-04 2.534E-03

     total cpu time spent up to now is      104.1 secs

     total energy              =    -577.45552754 Ry
     estimated scf accuracy    <       0.00497586 Ry

     total magnetization       =     3.16 Bohr mag/cell
     absolute magnetization    =     3.33 Bohr mag/cell
[tb_dev] Currently allocated     1.13E+00 Mbytes, locked:    0 /   6
[tb_pin] Currently allocated     0.00E+00 Mbytes, locked:    0 /   0

     iteration # 26     ecut=    50.00 Ry     beta= 0.20
     Davidson diagonalization with overlap

---- Real-time Memory Report at c_bands before calling an iterative solver
          1113 MiB given to the printing process from OS
           898 MiB allocation reported by mallinfo(arena+hblkhd)
         58760 MiB available memory on the node where the printing process lives
     GPU memory used/free/total (MiB): 1136 / 15144 / 16280
------------------
     ethr =  2.70E-06,  avg # of iterations =  2.3

     negative rho (up, down):  1.223E-04 2.487E-03

     total cpu time spent up to now is      107.2 secs

     total energy              =    -577.45670894 Ry
     estimated scf accuracy    <       0.00041744 Ry

     total magnetization       =     2.79 Bohr mag/cell
     absolute magnetization    =     3.02 Bohr mag/cell
[tb_dev] Currently allocated     1.13E+00 Mbytes, locked:    0 /   6
[tb_pin] Currently allocated     0.00E+00 Mbytes, locked:    0 /   0

     iteration # 27     ecut=    50.00 Ry     beta= 0.20
     Davidson diagonalization with overlap

---- Real-time Memory Report at c_bands before calling an iterative solver
          1113 MiB given to the printing process from OS
           898 MiB allocation reported by mallinfo(arena+hblkhd)
         58760 MiB available memory on the node where the printing process lives
     GPU memory used/free/total (MiB): 1136 / 15144 / 16280
------------------
     ethr =  8.03E-07,  avg # of iterations =  3.0

     negative rho (up, down):  1.277E-04 2.435E-03

     total cpu time spent up to now is      110.6 secs

     total energy              =    -577.45695135 Ry
     estimated scf accuracy    <       0.00109768 Ry

     total magnetization       =     2.75 Bohr mag/cell
     absolute magnetization    =     2.98 Bohr mag/cell
[tb_dev] Currently allocated     1.13E+00 Mbytes, locked:    0 /   6
[tb_pin] Currently allocated     0.00E+00 Mbytes, locked:    0 /   0

     iteration # 28     ecut=    50.00 Ry     beta= 0.20
     Davidson diagonalization with overlap

---- Real-time Memory Report at c_bands before calling an iterative solver
          1113 MiB given to the printing process from OS
           898 MiB allocation reported by mallinfo(arena+hblkhd)
         58761 MiB available memory on the node where the printing process lives
     GPU memory used/free/total (MiB): 1136 / 15144 / 16280
------------------
     ethr =  8.03E-07,  avg # of iterations =  1.4

     negative rho (up, down):  8.271E-05 2.906E-03

     total cpu time spent up to now is      113.1 secs

     total energy              =    -577.45143611 Ry
     estimated scf accuracy    <       0.00117814 Ry

     total magnetization       =     2.64 Bohr mag/cell
     absolute magnetization    =     2.91 Bohr mag/cell
[tb_dev] Currently allocated     1.13E+00 Mbytes, locked:    0 /   6
[tb_pin] Currently allocated     0.00E+00 Mbytes, locked:    0 /   0

     iteration # 29     ecut=    50.00 Ry     beta= 0.20
     Davidson diagonalization with overlap

---- Real-time Memory Report at c_bands before calling an iterative solver
          1113 MiB given to the printing process from OS
           898 MiB allocation reported by mallinfo(arena+hblkhd)
         58760 MiB available memory on the node where the printing process lives
     GPU memory used/free/total (MiB): 1136 / 15144 / 16280
------------------
     c_bands:  2 eigenvalues not converged
     c_bands:  1 eigenvalues not converged
     ethr =  8.03E-07,  avg # of iterations =  7.9

     negative rho (up, down):  6.604E-05 3.094E-03

     total cpu time spent up to now is      120.2 secs

     total energy              =    -577.45379301 Ry
     estimated scf accuracy    <       0.00204235 Ry

     total magnetization       =     3.17 Bohr mag/cell
     absolute magnetization    =     3.35 Bohr mag/cell
[tb_dev] Currently allocated     1.13E+00 Mbytes, locked:    0 /   6
[tb_pin] Currently allocated     0.00E+00 Mbytes, locked:    0 /   0

     iteration # 30     ecut=    50.00 Ry     beta= 0.20
     Davidson diagonalization with overlap

---- Real-time Memory Report at c_bands before calling an iterative solver
          1113 MiB given to the printing process from OS
           898 MiB allocation reported by mallinfo(arena+hblkhd)
         58760 MiB available memory on the node where the printing process lives
     GPU memory used/free/total (MiB): 1136 / 15144 / 16280
------------------
     c_bands:  1 eigenvalues not converged
     ethr =  8.03E-07,  avg # of iterations =  4.2

     negative rho (up, down):  5.382E-05 3.236E-03

     total cpu time spent up to now is      124.4 secs

     total energy              =    -577.45343857 Ry
     estimated scf accuracy    <       0.00142930 Ry

     total magnetization       =     3.42 Bohr mag/cell
     absolute magnetization    =     3.57 Bohr mag/cell
[tb_dev] Currently allocated     1.13E+00 Mbytes, locked:    0 /   6
[tb_pin] Currently allocated     0.00E+00 Mbytes, locked:    0 /   0

     iteration # 31     ecut=    50.00 Ry     beta= 0.20
     Davidson diagonalization with overlap

---- Real-time Memory Report at c_bands before calling an iterative solver
          1113 MiB given to the printing process from OS
           898 MiB allocation reported by mallinfo(arena+hblkhd)
         58761 MiB available memory on the node where the printing process lives
     GPU memory used/free/total (MiB): 1136 / 15144 / 16280
------------------
     ethr =  8.03E-07,  avg # of iterations =  4.8

     negative rho (up, down):  3.602E-05 3.454E-03

     total cpu time spent up to now is      128.9 secs

     total energy              =    -577.45183883 Ry
     estimated scf accuracy    <       0.00193303 Ry

     total magnetization       =     3.53 Bohr mag/cell
     absolute magnetization    =     3.68 Bohr mag/cell
[tb_dev] Currently allocated     1.13E+00 Mbytes, locked:    0 /   6
[tb_pin] Currently allocated     0.00E+00 Mbytes, locked:    0 /   0

     iteration # 32     ecut=    50.00 Ry     beta= 0.20
     Davidson diagonalization with overlap

---- Real-time Memory Report at c_bands before calling an iterative solver
          1113 MiB given to the printing process from OS
           898 MiB allocation reported by mallinfo(arena+hblkhd)
         58761 MiB available memory on the node where the printing process lives
     GPU memory used/free/total (MiB): 1136 / 15144 / 16280
------------------
     ethr =  8.03E-07,  avg # of iterations =  4.7

     negative rho (up, down):  4.245E-05 3.374E-03

     total cpu time spent up to now is      133.8 secs

     total energy              =    -577.45281344 Ry
     estimated scf accuracy    <       0.00285443 Ry

     total magnetization       =     3.69 Bohr mag/cell
     absolute magnetization    =     3.84 Bohr mag/cell
[tb_dev] Currently allocated     1.13E+00 Mbytes, locked:    0 /   6
[tb_pin] Currently allocated     0.00E+00 Mbytes, locked:    0 /   0

     iteration # 33     ecut=    50.00 Ry     beta= 0.20
     Davidson diagonalization with overlap

---- Real-time Memory Report at c_bands before calling an iterative solver
          1113 MiB given to the printing process from OS
           898 MiB allocation reported by mallinfo(arena+hblkhd)
         58761 MiB available memory on the node where the printing process lives
     GPU memory used/free/total (MiB): 1136 / 15144 / 16280
------------------
     ethr =  8.03E-07,  avg # of iterations =  1.5

     negative rho (up, down):  4.344E-05 3.363E-03

     total cpu time spent up to now is      136.4 secs

     total energy              =    -577.45292181 Ry
     estimated scf accuracy    <       0.00253696 Ry

     total magnetization       =     3.64 Bohr mag/cell
     absolute magnetization    =     3.79 Bohr mag/cell
[tb_dev] Currently allocated     1.13E+00 Mbytes, locked:    0 /   6
[tb_pin] Currently allocated     0.00E+00 Mbytes, locked:    0 /   0

     iteration # 34     ecut=    50.00 Ry     beta= 0.20
     Davidson diagonalization with overlap

---- Real-time Memory Report at c_bands before calling an iterative solver
          1113 MiB given to the printing process from OS
           898 MiB allocation reported by mallinfo(arena+hblkhd)
         58762 MiB available memory on the node where the printing process lives
     GPU memory used/free/total (MiB): 1136 / 15144 / 16280
------------------
     ethr =  8.03E-07,  avg # of iterations =  1.0

     negative rho (up, down):  1.076E-04 2.630E-03

     total cpu time spent up to now is      138.9 secs

     total energy              =    -577.44928196 Ry
     estimated scf accuracy    <       0.00234166 Ry

     total magnetization       =     3.63 Bohr mag/cell
     absolute magnetization    =     3.78 Bohr mag/cell
[tb_dev] Currently allocated     1.13E+00 Mbytes, locked:    0 /   6
[tb_pin] Currently allocated     0.00E+00 Mbytes, locked:    0 /   0

     iteration # 35     ecut=    50.00 Ry     beta= 0.20
     Davidson diagonalization with overlap

---- Real-time Memory Report at c_bands before calling an iterative solver
          1113 MiB given to the printing process from OS
           898 MiB allocation reported by mallinfo(arena+hblkhd)
         58761 MiB available memory on the node where the printing process lives
     GPU memory used/free/total (MiB): 1136 / 15144 / 16280
------------------
     ethr =  8.03E-07,  avg # of iterations =  9.3

     negative rho (up, down):  1.288E-04 2.397E-03

     total cpu time spent up to now is      146.2 secs

     total energy              =    -577.45609985 Ry
     estimated scf accuracy    <       0.00023129 Ry

     total magnetization       =     2.96 Bohr mag/cell
     absolute magnetization    =     3.16 Bohr mag/cell
[tb_dev] Currently allocated     1.13E+00 Mbytes, locked:    0 /   6
[tb_pin] Currently allocated     0.00E+00 Mbytes, locked:    0 /   0

     iteration # 36     ecut=    50.00 Ry     beta= 0.20
     Davidson diagonalization with overlap

---- Real-time Memory Report at c_bands before calling an iterative solver
          1113 MiB given to the printing process from OS
           898 MiB allocation reported by mallinfo(arena+hblkhd)
         58762 MiB available memory on the node where the printing process lives
     GPU memory used/free/total (MiB): 1136 / 15144 / 16280
------------------
     ethr =  4.45E-07,  avg # of iterations =  6.2

     negative rho (up, down):  2.109E-04 2.351E-03

     total cpu time spent up to now is      151.6 secs

     total energy              =    -577.44857762 Ry
     estimated scf accuracy    <       0.00037797 Ry

     total magnetization       =     2.64 Bohr mag/cell
     absolute magnetization    =     2.91 Bohr mag/cell
[tb_dev] Currently allocated     1.13E+00 Mbytes, locked:    0 /   6
[tb_pin] Currently allocated     0.00E+00 Mbytes, locked:    0 /   0

     iteration # 37     ecut=    50.00 Ry     beta= 0.20
     Davidson diagonalization with overlap

---- Real-time Memory Report at c_bands before calling an iterative solver
          1113 MiB given to the printing process from OS
           898 MiB allocation reported by mallinfo(arena+hblkhd)
         58762 MiB available memory on the node where the printing process lives
     GPU memory used/free/total (MiB): 1136 / 15144 / 16280
------------------
     c_bands:  1 eigenvalues not converged
     ethr =  4.45E-07,  avg # of iterations =  9.8

     negative rho (up, down):  1.999E-04 2.338E-03

     total cpu time spent up to now is      159.3 secs

     total energy              =    -577.46482211 Ry
     estimated scf accuracy    <       0.00835027 Ry

     total magnetization       =     1.15 Bohr mag/cell
     absolute magnetization    =     3.13 Bohr mag/cell
[tb_dev] Currently allocated     1.13E+00 Mbytes, locked:    0 /   6
[tb_pin] Currently allocated     0.00E+00 Mbytes, locked:    0 /   0

     iteration # 38     ecut=    50.00 Ry     beta= 0.20
     Davidson diagonalization with overlap

---- Real-time Memory Report at c_bands before calling an iterative solver
          1113 MiB given to the printing process from OS
           898 MiB allocation reported by mallinfo(arena+hblkhd)
         58762 MiB available memory on the node where the printing process lives
     GPU memory used/free/total (MiB): 1136 / 15144 / 16280
------------------
     ethr =  4.45E-07,  avg # of iterations =  2.9

     negative rho (up, down):  1.064E-04 2.639E-03

     total cpu time spent up to now is      162.7 secs

     total energy              =    -577.43013026 Ry
     estimated scf accuracy    <       0.00638852 Ry

     total magnetization       =     1.36 Bohr mag/cell
     absolute magnetization    =     2.88 Bohr mag/cell
[tb_dev] Currently allocated     1.13E+00 Mbytes, locked:    0 /   6
[tb_pin] Currently allocated     0.00E+00 Mbytes, locked:    0 /   0

     iteration # 39     ecut=    50.00 Ry     beta= 0.20
     Davidson diagonalization with overlap

---- Real-time Memory Report at c_bands before calling an iterative solver
          1113 MiB given to the printing process from OS
           898 MiB allocation reported by mallinfo(arena+hblkhd)
         58762 MiB available memory on the node where the printing process lives
     GPU memory used/free/total (MiB): 1136 / 15144 / 16280
------------------
     c_bands:  1 eigenvalues not converged
     c_bands:  1 eigenvalues not converged
     c_bands:  1 eigenvalues not converged
     c_bands:  1 eigenvalues not converged
     ethr =  4.45E-07,  avg # of iterations = 10.0

     negative rho (up, down):  3.164E-05 3.526E-03

     total cpu time spent up to now is      170.6 secs

     total energy              =    -577.44112930 Ry
     estimated scf accuracy    <       0.00054275 Ry

     total magnetization       =     3.00 Bohr mag/cell
     absolute magnetization    =     3.19 Bohr mag/cell
[tb_dev] Currently allocated     1.13E+00 Mbytes, locked:    0 /   6
[tb_pin] Currently allocated     0.00E+00 Mbytes, locked:    0 /   0

     iteration # 40     ecut=    50.00 Ry     beta= 0.20
     Davidson diagonalization with overlap

---- Real-time Memory Report at c_bands before calling an iterative solver
          1113 MiB given to the printing process from OS
           898 MiB allocation reported by mallinfo(arena+hblkhd)
         58763 MiB available memory on the node where the printing process lives
     GPU memory used/free/total (MiB): 1136 / 15144 / 16280
------------------
     ethr =  4.45E-07,  avg # of iterations =  9.6

     negative rho (up, down):  9.971E-06 3.804E-03

     total cpu time spent up to now is      178.1 secs

     total energy              =    -577.44795730 Ry
     estimated scf accuracy    <       0.00109023 Ry

     total magnetization       =     3.80 Bohr mag/cell
     absolute magnetization    =     3.94 Bohr mag/cell
[tb_dev] Currently allocated     1.13E+00 Mbytes, locked:    0 /   6
[tb_pin] Currently allocated     0.00E+00 Mbytes, locked:    0 /   0

     iteration # 41     ecut=    50.00 Ry     beta= 0.20
     Davidson diagonalization with overlap

---- Real-time Memory Report at c_bands before calling an iterative solver
          1113 MiB given to the printing process from OS
           898 MiB allocation reported by mallinfo(arena+hblkhd)
         58762 MiB available memory on the node where the printing process lives
     GPU memory used/free/total (MiB): 1136 / 15144 / 16280
------------------
     ethr =  4.45E-07,  avg # of iterations =  5.7

     negative rho (up, down):  5.673E-05 3.222E-03

     total cpu time spent up to now is      183.3 secs

     total energy              =    -577.45054869 Ry
     estimated scf accuracy    <       0.00218665 Ry

     total magnetization       =     4.01 Bohr mag/cell
     absolute magnetization    =     4.16 Bohr mag/cell
[tb_dev] Currently allocated     1.13E+00 Mbytes, locked:    0 /   6
[tb_pin] Currently allocated     0.00E+00 Mbytes, locked:    0 /   0

     iteration # 42     ecut=    50.00 Ry     beta= 0.20
     Davidson diagonalization with overlap

---- Real-time Memory Report at c_bands before calling an iterative solver
          1113 MiB given to the printing process from OS
           898 MiB allocation reported by mallinfo(arena+hblkhd)
         58762 MiB available memory on the node where the printing process lives
     GPU memory used/free/total (MiB): 1136 / 15144 / 16280
------------------
     ethr =  4.45E-07,  avg # of iterations =  7.6

     negative rho (up, down):  6.398E-05 3.151E-03

     total cpu time spent up to now is      189.9 secs

     total energy              =    -577.45421035 Ry
     estimated scf accuracy    <       0.00116657 Ry

     total magnetization       =     3.60 Bohr mag/cell
     absolute magnetization    =     3.75 Bohr mag/cell
[tb_dev] Currently allocated     1.13E+00 Mbytes, locked:    0 /   6
[tb_pin] Currently allocated     0.00E+00 Mbytes, locked:    0 /   0

     iteration # 43     ecut=    50.00 Ry     beta= 0.20
     Davidson diagonalization with overlap

---- Real-time Memory Report at c_bands before calling an iterative solver
          1113 MiB given to the printing process from OS
           898 MiB allocation reported by mallinfo(arena+hblkhd)
         58762 MiB available memory on the node where the printing process lives
     GPU memory used/free/total (MiB): 1136 / 15144 / 16280
------------------
     ethr =  4.45E-07,  avg # of iterations =  3.5

     negative rho (up, down):  6.240E-05 3.170E-03

     total cpu time spent up to now is      193.5 secs

     total energy              =    -577.45419993 Ry
     estimated scf accuracy    <       0.00078300 Ry

     total magnetization       =     3.53 Bohr mag/cell
     absolute magnetization    =     3.68 Bohr mag/cell
[tb_dev] Currently allocated     1.13E+00 Mbytes, locked:    0 /   6
[tb_pin] Currently allocated     0.00E+00 Mbytes, locked:    0 /   0

     iteration # 44     ecut=    50.00 Ry     beta= 0.20
     Davidson diagonalization with overlap

---- Real-time Memory Report at c_bands before calling an iterative solver
          1113 MiB given to the printing process from OS
           898 MiB allocation reported by mallinfo(arena+hblkhd)
         58762 MiB available memory on the node where the printing process lives
     GPU memory used/free/total (MiB): 1136 / 15144 / 16280
------------------
     ethr =  4.45E-07,  avg # of iterations =  1.0

     negative rho (up, down):  4.639E-05 3.358E-03

     total cpu time spent up to now is      196.0 secs

     total energy              =    -577.45275726 Ry
     estimated scf accuracy    <       0.00069512 Ry

     total magnetization       =     3.53 Bohr mag/cell
     absolute magnetization    =     3.69 Bohr mag/cell
[tb_dev] Currently allocated     1.13E+00 Mbytes, locked:    0 /   6
[tb_pin] Currently allocated     0.00E+00 Mbytes, locked:    0 /   0

     iteration # 45     ecut=    50.00 Ry     beta= 0.20
     Davidson diagonalization with overlap

---- Real-time Memory Report at c_bands before calling an iterative solver
          1113 MiB given to the printing process from OS
           898 MiB allocation reported by mallinfo(arena+hblkhd)
         58762 MiB available memory on the node where the printing process lives
     GPU memory used/free/total (MiB): 1136 / 15144 / 16280
------------------
     ethr =  4.45E-07,  avg # of iterations =  4.7

     negative rho (up, down):  2.289E-05 3.658E-03

     total cpu time spent up to now is      200.4 secs

     total energy              =    -577.44961680 Ry
     estimated scf accuracy    <       0.00063894 Ry

     total magnetization       =     3.67 Bohr mag/cell
     absolute magnetization    =     3.82 Bohr mag/cell
[tb_dev] Currently allocated     1.13E+00 Mbytes, locked:    0 /   6
[tb_pin] Currently allocated     0.00E+00 Mbytes, locked:    0 /   0

     iteration # 46     ecut=    50.00 Ry     beta= 0.20
     Davidson diagonalization with overlap

---- Real-time Memory Report at c_bands before calling an iterative solver
          1113 MiB given to the printing process from OS
           898 MiB allocation reported by mallinfo(arena+hblkhd)
         58763 MiB available memory on the node where the printing process lives
     GPU memory used/free/total (MiB): 1136 / 15144 / 16280
------------------
     ethr =  4.45E-07,  avg # of iterations =  6.7

     negative rho (up, down):  6.133E-05 3.190E-03

     total cpu time spent up to now is      206.5 secs

     total energy              =    -577.45179852 Ry
     estimated scf accuracy    <       0.00136029 Ry

     total magnetization       =     3.89 Bohr mag/cell
     absolute magnetization    =     4.04 Bohr mag/cell
[tb_dev] Currently allocated     1.13E+00 Mbytes, locked:    0 /   6
[tb_pin] Currently allocated     0.00E+00 Mbytes, locked:    0 /   0

     iteration # 47     ecut=    50.00 Ry     beta= 0.20
     Davidson diagonalization with overlap

---- Real-time Memory Report at c_bands before calling an iterative solver
          1113 MiB given to the printing process from OS
           898 MiB allocation reported by mallinfo(arena+hblkhd)
         58763 MiB available memory on the node where the printing process lives
     GPU memory used/free/total (MiB): 1136 / 15144 / 16280
------------------
     ethr =  4.45E-07,  avg # of iterations =  6.6

     negative rho (up, down):  1.252E-04 2.487E-03

     total cpu time spent up to now is      212.2 secs

     total energy              =    -577.44979682 Ry
     estimated scf accuracy    <       0.00040437 Ry

     total magnetization       =     3.52 Bohr mag/cell
     absolute magnetization    =     3.67 Bohr mag/cell
[tb_dev] Currently allocated     1.13E+00 Mbytes, locked:    0 /   6
[tb_pin] Currently allocated     0.00E+00 Mbytes, locked:    0 /   0

     iteration # 48     ecut=    50.00 Ry     beta= 0.20
     Davidson diagonalization with overlap

---- Real-time Memory Report at c_bands before calling an iterative solver
          1113 MiB given to the printing process from OS
           898 MiB allocation reported by mallinfo(arena+hblkhd)
         58762 MiB available memory on the node where the printing process lives
     GPU memory used/free/total (MiB): 1136 / 15144 / 16280
------------------
     c_bands:  1 eigenvalues not converged
     ethr =  4.45E-07,  avg # of iterations =  9.6

     negative rho (up, down):  1.612E-04 2.365E-03

     total cpu time spent up to now is      219.8 secs

     total energy              =    -577.45622856 Ry
     estimated scf accuracy    <       0.00147197 Ry

     total magnetization       =     2.67 Bohr mag/cell
     absolute magnetization    =     2.93 Bohr mag/cell
[tb_dev] Currently allocated     1.13E+00 Mbytes, locked:    0 /   6
[tb_pin] Currently allocated     0.00E+00 Mbytes, locked:    0 /   0

     iteration # 49     ecut=    50.00 Ry     beta= 0.20
     Davidson diagonalization with overlap

---- Real-time Memory Report at c_bands before calling an iterative solver
          1113 MiB given to the printing process from OS
           898 MiB allocation reported by mallinfo(arena+hblkhd)
         58762 MiB available memory on the node where the printing process lives
     GPU memory used/free/total (MiB): 1136 / 15144 / 16280
------------------
     c_bands:  1 eigenvalues not converged
     c_bands:  1 eigenvalues not converged
     ethr =  4.45E-07,  avg # of iterations =  7.7

     negative rho (up, down):  1.153E-04 2.604E-03

     total cpu time spent up to now is      226.2 secs

     total energy              =    -577.45086914 Ry
     estimated scf accuracy    <       0.00167763 Ry

     total magnetization       =     2.05 Bohr mag/cell
     absolute magnetization    =     2.57 Bohr mag/cell
[tb_dev] Currently allocated     1.13E+00 Mbytes, locked:    0 /   6
[tb_pin] Currently allocated     0.00E+00 Mbytes, locked:    0 /   0

     iteration # 50     ecut=    50.00 Ry     beta= 0.20
     Davidson diagonalization with overlap

---- Real-time Memory Report at c_bands before calling an iterative solver
          1113 MiB given to the printing process from OS
           898 MiB allocation reported by mallinfo(arena+hblkhd)
         58762 MiB available memory on the node where the printing process lives
     GPU memory used/free/total (MiB): 1136 / 15144 / 16280
------------------
     ethr =  4.45E-07,  avg # of iterations =  7.8

     negative rho (up, down):  1.867E-04 2.380E-03

     total cpu time spent up to now is      233.0 secs

     total energy              =    -577.44978448 Ry
     estimated scf accuracy    <       0.00053714 Ry

     total magnetization       =     2.85 Bohr mag/cell
     absolute magnetization    =     3.07 Bohr mag/cell
[tb_dev] Currently allocated     1.13E+00 Mbytes, locked:    0 /   6
[tb_pin] Currently allocated     0.00E+00 Mbytes, locked:    0 /   0

     iteration # 51     ecut=    50.00 Ry     beta= 0.20
     Davidson diagonalization with overlap

---- Real-time Memory Report at c_bands before calling an iterative solver
          1113 MiB given to the printing process from OS
           898 MiB allocation reported by mallinfo(arena+hblkhd)
         58763 MiB available memory on the node where the printing process lives
[...]
------------------
     ethr =  4.45E-07,  avg # of iterations =  9.6

     negative rho (up, down):  9.607E-05 2.801E-03

     total cpu time spent up to now is      348.2 secs

     total energy              =    -577.45560063 Ry
     estimated scf accuracy    <       0.00097795 Ry

     total magnetization       =     3.27 Bohr mag/cell
     absolute magnetization    =     3.43 Bohr mag/cell
[tb_dev] Currently allocated     1.13E+00 Mbytes, locked:    0 /   6
[tb_pin] Currently allocated     0.00E+00 Mbytes, locked:    0 /   0

     iteration # 68     ecut=    50.00 Ry     beta= 0.20
     Davidson diagonalization with overlap

---- Real-time Memory Report at c_bands before calling an iterative solver
          1113 MiB given to the printing process from OS
           898 MiB allocation reported by mallinfo(arena+hblkhd)
         58763 MiB available memory on the node where the printing process lives
     GPU memory used/free/total (MiB): 1136 / 15144 / 16280
------------------
     ethr =  4.45E-07,  avg # of iterations =  2.4

     negative rho (up, down):  1.132E-04 2.612E-03

     total cpu time spent up to now is      351.2 secs

     total energy              =    -577.45579980 Ry
     estimated scf accuracy    <       0.00080278 Ry

     total magnetization       =     3.16 Bohr mag/cell
     absolute magnetization    =     3.34 Bohr mag/cell
[tb_dev] Currently allocated     1.13E+00 Mbytes, locked:    0 /   6
[tb_pin] Currently allocated     0.00E+00 Mbytes, locked:    0 /   0

     iteration # 69     ecut=    50.00 Ry     beta= 0.20
     Davidson diagonalization with overlap

---- Real-time Memory Report at c_bands before calling an iterative solver
          1113 MiB given to the printing process from OS
           898 MiB allocation reported by mallinfo(arena+hblkhd)
         58763 MiB available memory on the node where the printing process lives
     GPU memory used/free/total (MiB): 1136 / 15144 / 16280
------------------
     ethr =  4.45E-07,  avg # of iterations =  4.7

     negative rho (up, down):  1.063E-04 2.688E-03

     total cpu time spent up to now is      355.6 secs

     total energy              =    -577.45601521 Ry
     estimated scf accuracy    <       0.00075104 Ry

     total magnetization       =     2.93 Bohr mag/cell
     absolute magnetization    =     3.13 Bohr mag/cell
[tb_dev] Currently allocated     1.13E+00 Mbytes, locked:    0 /   6
[tb_pin] Currently allocated     0.00E+00 Mbytes, locked:    0 /   0

     iteration # 70     ecut=    50.00 Ry     beta= 0.20
     Davidson diagonalization with overlap

---- Real-time Memory Report at c_bands before calling an iterative solver
          1113 MiB given to the printing process from OS
           898 MiB allocation reported by mallinfo(arena+hblkhd)
         58762 MiB available memory on the node where the printing process lives
     GPU memory used/free/total (MiB): 1136 / 15144 / 16280
------------------
     ethr =  4.45E-07,  avg # of iterations =  1.6

     negative rho (up, down):  1.857E-04 2.378E-03

     total cpu time spent up to now is      358.3 secs

     total energy              =    -577.44725051 Ry
     estimated scf accuracy    <       0.00079303 Ry

     total magnetization       =     3.03 Bohr mag/cell
     absolute magnetization    =     3.21 Bohr mag/cell
[tb_dev] Currently allocated     1.13E+00 Mbytes, locked:    0 /   6
[tb_pin] Currently allocated     0.00E+00 Mbytes, locked:    0 /   0

     iteration # 71     ecut=    50.00 Ry     beta= 0.20
     Davidson diagonalization with overlap

---- Real-time Memory Report at c_bands before calling an iterative solver
          1113 MiB given to the printing process from OS
           898 MiB allocation reported by mallinfo(arena+hblkhd)
         58762 MiB available memory on the node where the printing process lives
     GPU memory used/free/total (MiB): 1136 / 15144 / 16280
------------------
     c_bands:  1 eigenvalues not converged
     ethr =  4.45E-07,  avg # of iterations =  9.7

     negative rho (up, down):  3.926E-05 3.444E-03

     total cpu time spent up to now is      366.2 secs

     total energy              =    -577.39762651 Ry
     estimated scf accuracy    <       0.00269038 Ry

     total magnetization       =     1.63 Bohr mag/cell
     absolute magnetization    =     2.59 Bohr mag/cell
[tb_dev] Currently allocated     1.13E+00 Mbytes, locked:    0 /   6
[tb_pin] Currently allocated     0.00E+00 Mbytes, locked:    0 /   0

     iteration # 72     ecut=    50.00 Ry     beta= 0.20
     Davidson diagonalization with overlap

---- Real-time Memory Report at c_bands before calling an iterative solver
          1113 MiB given to the printing process from OS
           898 MiB allocation reported by mallinfo(arena+hblkhd)
         58763 MiB available memory on the node where the printing process lives
     GPU memory used/free/total (MiB): 1136 / 15144 / 16280
------------------
     c_bands:  1 eigenvalues not converged
     c_bands:  1 eigenvalues not converged
     c_bands:  1 eigenvalues not converged
     c_bands:  1 eigenvalues not converged
     c_bands:  1 eigenvalues not converged
     c_bands:  1 eigenvalues not converged
     c_bands:  1 eigenvalues not converged
     c_bands:  1 eigenvalues not converged
     c_bands:  1 eigenvalues not converged
     c_bands:  1 eigenvalues not converged
     c_bands:  1 eigenvalues not converged
     c_bands:  2 eigenvalues not converged
     c_bands:  2 eigenvalues not converged
     c_bands:  1 eigenvalues not converged
     c_bands:  1 eigenvalues not converged
     c_bands:  1 eigenvalues not converged
     c_bands:  1 eigenvalues not converged
     ethr =  4.45E-07,  avg # of iterations = 12.1

     negative rho (up, down):  2.325E-04 2.417E-03

     total cpu time spent up to now is      375.6 secs

     total energy              =    -577.39564362 Ry
     estimated scf accuracy    <       0.00082160 Ry

     total magnetization       =     3.74 Bohr mag/cell
     absolute magnetization    =     3.89 Bohr mag/cell
[tb_dev] Currently allocated     1.13E+00 Mbytes, locked:    0 /   6
[tb_pin] Currently allocated     0.00E+00 Mbytes, locked:    0 /   0

     iteration # 73     ecut=    50.00 Ry     beta= 0.20
     Davidson diagonalization with overlap

---- Real-time Memory Report at c_bands before calling an iterative solver
          1113 MiB given to the printing process from OS
           898 MiB allocation reported by mallinfo(arena+hblkhd)
         58740 MiB available memory on the node where the printing process lives
     GPU memory used/free/total (MiB): 1136 / 15144 / 16280
------------------
     c_bands:  1 eigenvalues not converged
     c_bands:  1 eigenvalues not converged
     c_bands:  1 eigenvalues not converged
     c_bands:  1 eigenvalues not converged
     c_bands:  1 eigenvalues not converged
     c_bands:  1 eigenvalues not converged
     c_bands:  1 eigenvalues not converged
     c_bands:  1 eigenvalues not converged
     c_bands:  2 eigenvalues not converged
     c_bands:  1 eigenvalues not converged
     c_bands:  1 eigenvalues not converged
     c_bands:  1 eigenvalues not converged
     c_bands:  1 eigenvalues not converged
     c_bands:  1 eigenvalues not converged
     c_bands:  1 eigenvalues not converged
     c_bands:  1 eigenvalues not converged
     c_bands:  1 eigenvalues not converged
     c_bands:  1 eigenvalues not converged
     c_bands:  1 eigenvalues not converged
     c_bands:  1 eigenvalues not converged
     c_bands:  1 eigenvalues not converged
     c_bands:  1 eigenvalues not converged
     c_bands:  2 eigenvalues not converged
     c_bands:  2 eigenvalues not converged
     c_bands:  1 eigenvalues not converged
     c_bands:  1 eigenvalues not converged
     c_bands:  1 eigenvalues not converged
     c_bands:  2 eigenvalues not converged
     ethr =  4.45E-07,  avg # of iterations = 13.3

     negative rho (up, down):  1.452E-04 2.340E-03

     total cpu time spent up to now is      385.5 secs

     total energy              =    -577.43317821 Ry
     estimated scf accuracy    <       0.01846432 Ry

     total magnetization       =     0.75 Bohr mag/cell
     absolute magnetization    =     3.64 Bohr mag/cell
[tb_dev] Currently allocated     1.13E+00 Mbytes, locked:    0 /   6
[tb_pin] Currently allocated     0.00E+00 Mbytes, locked:    0 /   0

     iteration # 74     ecut=    50.00 Ry     beta= 0.20
     Davidson diagonalization with overlap

---- Real-time Memory Report at c_bands before calling an iterative solver
          1113 MiB given to the printing process from OS
           898 MiB allocation reported by mallinfo(arena+hblkhd)
         58749 MiB available memory on the node where the printing process lives
     GPU memory used/free/total (MiB): 1136 / 15144 / 16280
------------------
     c_bands:  1 eigenvalues not converged
     c_bands:  1 eigenvalues not converged
     c_bands:  1 eigenvalues not converged
     c_bands:  1 eigenvalues not converged
     c_bands:  1 eigenvalues not converged
     ethr =  4.45E-07,  avg # of iterations =  9.8

     negative rho (up, down):  6.089E-05 3.195E-03

     total cpu time spent up to now is      393.3 secs

     total energy              =    -577.43809518 Ry
     estimated scf accuracy    <       0.00089537 Ry

     total magnetization       =     2.40 Bohr mag/cell
     absolute magnetization    =     2.75 Bohr mag/cell
[tb_dev] Currently allocated     1.13E+00 Mbytes, locked:    0 /   6
[tb_pin] Currently allocated     0.00E+00 Mbytes, locked:    0 /   0

     iteration # 75     ecut=    50.00 Ry     beta= 0.20
     Davidson diagonalization with overlap

---- Real-time Memory Report at c_bands before calling an iterative solver
          1113 MiB given to the printing process from OS
           898 MiB allocation reported by mallinfo(arena+hblkhd)
         58751 MiB available memory on the node where the printing process lives
     GPU memory used/free/total (MiB): 1136 / 15144 / 16280
------------------
     c_bands:  1 eigenvalues not converged
     ethr =  4.45E-07,  avg # of iterations =  9.9

     negative rho (up, down):  9.372E-05 2.824E-03

     total cpu time spent up to now is      401.0 secs

     total energy              =    -577.45394197 Ry
     estimated scf accuracy    <       0.00115122 Ry

     total magnetization       =     3.56 Bohr mag/cell
     absolute magnetization    =     3.71 Bohr mag/cell
[tb_dev] Currently allocated     1.13E+00 Mbytes, locked:    0 /   6
[tb_pin] Currently allocated     0.00E+00 Mbytes, locked:    0 /   0

     iteration # 76     ecut=    50.00 Ry     beta= 0.20
     Davidson diagonalization with overlap

---- Real-time Memory Report at c_bands before calling an iterative solver
          1113 MiB given to the printing process from OS
           898 MiB allocation reported by mallinfo(arena+hblkhd)
         58753 MiB available memory on the node where the printing process lives
     GPU memory used/free/total (MiB): 1136 / 15144 / 16280
------------------
     ethr =  4.45E-07,  avg # of iterations =  6.0

     negative rho (up, down):  1.055E-04 2.704E-03

     total cpu time spent up to now is      406.8 secs

     total energy              =    -577.45583470 Ry
     estimated scf accuracy    <       0.00120029 Ry

     total magnetization       =     3.20 Bohr mag/cell
     absolute magnetization    =     3.36 Bohr mag/cell
[tb_dev] Currently allocated     1.13E+00 Mbytes, locked:    0 /   6
[tb_pin] Currently allocated     0.00E+00 Mbytes, locked:    0 /   0

     iteration # 77     ecut=    50.00 Ry     beta= 0.20
     Davidson diagonalization with overlap

---- Real-time Memory Report at c_bands before calling an iterative solver
          1113 MiB given to the printing process from OS
           898 MiB allocation reported by mallinfo(arena+hblkhd)
         58753 MiB available memory on the node where the printing process lives
     GPU memory used/free/total (MiB): 1136 / 15144 / 16280
------------------
     ethr =  4.45E-07,  avg # of iterations =  4.3

     negative rho (up, down):  1.246E-04 2.485E-03

     total cpu time spent up to now is      410.9 secs

     total energy              =    -577.45606142 Ry
     estimated scf accuracy    <       0.00068370 Ry

     total magnetization       =     3.05 Bohr mag/cell
     absolute magnetization    =     3.23 Bohr mag/cell
[tb_dev] Currently allocated     1.13E+00 Mbytes, locked:    0 /   6
[tb_pin] Currently allocated     0.00E+00 Mbytes, locked:    0 /   0

     iteration # 78     ecut=    50.00 Ry     beta= 0.20
     Davidson diagonalization with overlap

---- Real-time Memory Report at c_bands before calling an iterative solver
          1113 MiB given to the printing process from OS
           898 MiB allocation reported by mallinfo(arena+hblkhd)
         58753 MiB available memory on the node where the printing process lives
     GPU memory used/free/total (MiB): 1136 / 15144 / 16280
------------------
     ethr =  4.45E-07,  avg # of iterations =  6.2

     negative rho (up, down):  8.253E-05 2.939E-03

     total cpu time spent up to now is      416.5 secs

     total energy              =    -577.45161495 Ry
     estimated scf accuracy    <       0.00118431 Ry

     total magnetization       =     2.75 Bohr mag/cell
     absolute magnetization    =     3.00 Bohr mag/cell
[tb_dev] Currently allocated     1.13E+00 Mbytes, locked:    0 /   6
[tb_pin] Currently allocated     0.00E+00 Mbytes, locked:    0 /   0

     iteration # 79     ecut=    50.00 Ry     beta= 0.20
     Davidson diagonalization with overlap

---- Real-time Memory Report at c_bands before calling an iterative solver
          1113 MiB given to the printing process from OS
           898 MiB allocation reported by mallinfo(arena+hblkhd)
         58754 MiB available memory on the node where the printing process lives
     GPU memory used/free/total (MiB): 1136 / 15144 / 16280
------------------
     ethr =  4.45E-07,  avg # of iterations =  6.8

     negative rho (up, down):  6.765E-05 3.106E-03

     total cpu time spent up to now is      422.4 secs

     total energy              =    -577.45413441 Ry
     estimated scf accuracy    <       0.00195062 Ry

     total magnetization       =     3.32 Bohr mag/cell
     absolute magnetization    =     3.48 Bohr mag/cell
[tb_dev] Currently allocated     1.13E+00 Mbytes, locked:    0 /   6
[tb_pin] Currently allocated     0.00E+00 Mbytes, locked:    0 /   0

     iteration # 80     ecut=    50.00 Ry     beta= 0.20
     Davidson diagonalization with overlap

---- Real-time Memory Report at c_bands before calling an iterative solver
          1113 MiB given to the printing process from OS
           898 MiB allocation reported by mallinfo(arena+hblkhd)
         58755 MiB available memory on the node where the printing process lives
     GPU memory used/free/total (MiB): 1136 / 15144 / 16280
------------------
     ethr =  4.45E-07,  avg # of iterations =  5.0

     negative rho (up, down):  1.308E-04 2.411E-03

     total cpu time spent up to now is      427.0 secs

     total energy              =    -577.45000253 Ry
     estimated scf accuracy    <       0.00120074 Ry

     total magnetization       =     3.47 Bohr mag/cell
     absolute magnetization    =     3.62 Bohr mag/cell

     End of self-consistent calculation

     convergence NOT achieved after  80 iterations: stopping

     Writing config to output data dir ./out/aiida.save/
 
     init_run     :      9.99s CPU      2.21s WALL (       1 calls)
     electrons    :    546.03s CPU    423.76s WALL (       1 calls)

     Called by init_run:
     wfcinit      :      0.24s CPU      0.24s WALL (       1 calls)
                                        0.24s GPU  (       1 calls)
     potinit      :      0.23s CPU      0.05s WALL (       1 calls)
     hinit0       :      7.29s CPU      1.35s WALL (       1 calls)

     Called by electrons:
     c_bands      :    457.38s CPU    380.83s WALL (      80 calls)
     sum_band     :     30.91s CPU     37.49s WALL (      80 calls)
     v_of_rho     :     14.57s CPU      1.35s WALL (      81 calls)
     v_h          :      1.87s CPU      0.17s WALL (      81 calls)
     v_xc         :     12.70s CPU      1.18s WALL (      81 calls)
     newd         :     27.64s CPU      2.82s WALL (      81 calls)
                                        2.82s GPU  (      81 calls)
     mix_rho      :     11.77s CPU      1.14s WALL (      80 calls)

     Called by c_bands:
     init_us_2    :     31.87s CPU     30.61s WALL (   23040 calls)
     init_us_2:gp :     31.40s CPU     30.23s WALL (   23040 calls)
     cegterg      :    409.29s CPU    340.84s WALL (   11520 calls)

     Called by sum_band:
     sum_band:wei :      0.35s CPU      0.37s WALL (      80 calls)
                                        0.36s GPU  (      80 calls)
     sum_band:loo :     27.14s CPU     33.51s WALL (      80 calls)
                                       33.51s GPU  (      80 calls)
     sum_band:buf :      3.94s CPU      4.81s WALL (   11520 calls)
                                        4.74s GPU  (   11520 calls)
     sum_band:ini :     11.60s CPU     15.00s WALL (   11520 calls)
                                       14.94s GPU  (   11520 calls)
     sum_band:cal :      0.34s CPU      0.91s WALL (   11520 calls)
                                        0.82s GPU  (   11520 calls)
     sum_band:bec :      1.61s CPU      2.07s WALL (   11520 calls)
                                        1.99s GPU  (   11520 calls)
     addusdens    :      2.76s CPU      2.93s WALL (      80 calls)
                                        2.93s GPU  (      80 calls)
     addusd:skk   :      0.01s CPU      0.01s WALL (     240 calls)
                                        0.01s GPU  (     240 calls)

     Called by *egterg:
     cdiaghg      :    218.35s CPU    189.66s WALL (   78408 calls)
                                      189.15s GPU  (   78408 calls)
     cegterg:over :      9.67s CPU      8.19s WALL (   67032 calls)
     cegterg:upda :     20.53s CPU     16.85s WALL (   67032 calls)
     cegterg:last :      3.96s CPU      3.36s WALL (   32331 calls)
     h_psi        :    119.99s CPU     94.57s WALL (   78552 calls)
                                       94.15s GPU  (   78552 calls)
     s_psi        :      7.59s CPU      9.13s WALL (   78552 calls)
                                        8.54s GPU  (   78552 calls)
     g_psi        :      0.57s CPU      1.38s WALL (   67032 calls)
                                        0.96s GPU  (   67032 calls)

     Called by h_psi:
     h_psi:calbec :      3.09s CPU      6.56s WALL (   78552 calls)
                                        6.09s GPU  (   78552 calls)
     vloc_psi     :     92.36s CPU     72.52s WALL (   78552 calls)
                                       72.06s GPU  (   78552 calls)
     add_vuspsi   :     10.49s CPU     10.72s WALL (   78552 calls)
                                       10.26s GPU  (   78552 calls)

     General routines
     calbec       :      2.59s CPU      2.19s WALL (   90072 calls)
     fft          :      2.38s CPU      0.32s WALL (    2023 calls)
                                        0.26s GPU  (    1861 calls)
     ffts         :      0.05s CPU      0.02s WALL (     322 calls)
                                        0.01s GPU  (     160 calls)
     fftw         :      5.68s CPU     44.91s WALL (  236894 calls)
                                       43.59s GPU  (  236894 calls)
     interpolate  :      1.73s CPU      0.15s WALL (     162 calls)
     davcio       :      1.23s CPU      0.41s WALL (     306 calls)
 
     Parallel routines
 
     PWSCF        :   9m19.87s CPU   7m 7.39s WALL

 
   This run was terminated on:  18:14: 2  23Oct2023            

=------------------------------------------------------------------------------=
   JOB DONE.
=------------------------------------------------------------------------------=
