
     Program PWSCF v.7.2 starts on 23Oct2023 at 22:23:11 

     This program is part of the open-source Quantum ESPRESSO suite
     for quantum simulation of materials; please cite
         "P. Giannozzi et al., J. Phys.:Condens. Matter 21 395502 (2009);
         "P. Giannozzi et al., J. Phys.:Condens. Matter 29 465901 (2017);
         "P. Giannozzi et al., J. Chem. Phys. 152 154105 (2020);
          URL http://www.quantum-espresso.org", 
     in publications or presentations arising from this work. More details at
     http://www.quantum-espresso.org/quote

     Parallel version (MPI & OpenMP), running on      12 processor cores
     Number of MPI processes:                 1
     Threads/MPI process:                    12

     MPI processes distributed on     1 nodes
     60520 MiB available memory on the printing compute node when the environment starts
 
     Reading input from aiida.in

     Current dimensions of program PWSCF are:
     Max number of different atomic species (ntypx) = 10
     Max number of k-points (npk) =  40000
     Max angular momentum in pseudopotentials (lmaxx) =  4
     Message from routine setup:
     using ibrav=0 with symmetry is DISCOURAGED, use correct ibrav instead
 
     Subspace diagonalization in iterative solution of the eigenvalue problem:
     a serial algorithm will be used

 
     G-vector sticks info
     --------------------
     sticks:   dense  smooth     PW     G-vecs:    dense   smooth      PW
     Sum        4219    2107    595               334953   118403   17471
 
     Using Slab Decomposition
 


     bravais-lattice index     =            0
     lattice parameter (alat)  =      13.4171  a.u.
     unit-cell volume          =    3467.1451 (a.u.)^3
     number of atoms/cell      =           12
     number of atomic types    =            3
     number of electrons       =       140.00
     number of Kohn-Sham states=           84
     kinetic-energy cutoff     =      40.0000  Ry
     charge density cutoff     =     320.0000  Ry
     scf convergence threshold =      2.4E-09
     mixing beta               =       0.2000
     number of iterations used =            8  plain     mixing
     Exchange-correlation= PBESOL
                           (   1   4  10   8   0   0   0)

     GPU acceleration is ACTIVE.


     GPU used by master process:

        Device Number: 0
        Device name: Tesla P100-PCIE-16GB
        Compute capability : 60
        Ratio of single to double precision performance  : 2
        Memory Clock Rate (KHz): 715000
        Memory Bus Width (bits): 4096
        Peak Memory Bandwidth (GB/s): 732.16

     celldm(1)=  13.417055  celldm(2)=   0.000000  celldm(3)=   0.000000
     celldm(4)=   0.000000  celldm(5)=   0.000000  celldm(6)=   0.000000

     crystal axes: (cart. coord. in units of alat)
               a(1) = (   1.000000   0.000000   0.000000 )  
               a(2) = (   0.000000   0.921268   0.000000 )  
               a(3) = (   0.000000   0.000000   1.558169 )  

     reciprocal axes: (cart. coord. in units 2 pi/alat)
               b(1) = (  1.000000  0.000000  0.000000 )  
               b(2) = (  0.000000  1.085461  0.000000 )  
               b(3) = (  0.000000  0.000000  0.641779 )  


     PseudoPot. # 1 for As read from file:
     ./pseudo/As.pbesol-n-rrkjus_psl.0.2.UPF
     MD5 check sum: 1aa86e6aa4f77befd3aa87cac6788838
     Pseudo is Ultrasoft + core correction, Zval =  5.0
     Generated using "atomic" code by A. Dal Corso  v.6.0 svn rev. 13079
     Using radial grid of 1209 points,  4 beta functions with: 
                l(1) =   0
                l(2) =   0
                l(3) =   1
                l(4) =   1
     Q(r) pseudized with 0 coefficients 


     PseudoPot. # 2 for Cr read from file:
     ./pseudo/cr_pbesol_v1.5.uspp.F.UPF
     MD5 check sum: a621641e0be27168676a837af8893d0f
     Pseudo is Ultrasoft + core correction, Zval = 14.0
     Generated by new atomic code, or converted to UPF format
     Using radial grid of  857 points,  6 beta functions with: 
                l(1) =   0
                l(2) =   0
                l(3) =   1
                l(4) =   1
                l(5) =   2
                l(6) =   2
     Q(r) pseudized with  8 coefficients,  rinner =    0.950   0.950   0.950
                                                       0.950   0.950

     PseudoPot. # 3 for Ru read from file:
     ./pseudo/Ru_ONCV_PBEsol-1.0.upf
     MD5 check sum: 8f986bf37b5af91b2f53a4f9afee5fd8
     Pseudo is Norm-conserving, Zval = 16.0
     Generated using ONCVPSP code by D. R. Hamann
     Using radial grid of 1440 points,  6 beta functions with: 
                l(1) =   0
                l(2) =   0
                l(3) =   1
                l(4) =   1
                l(5) =   2
                l(6) =   2

     atomic species   valence    mass     pseudopotential
        As             5.00    74.92160     As( 1.00)
        Cr            14.00    51.99610     Cr( 1.00)
        Ru            16.00   101.07000     Ru( 1.00)

     Starting magnetic structure 
     atomic species   magnetization
        As           0.100
        Cr           0.357
        Ru           0.313

      8 Sym. Ops., with inversion, found ( 6 have fractional translation)


                                    s                        frac. trans.

      isym =  1     identity                                     

 cryst.   s( 1) = (     1          0          0      )
                  (     0          1          0      )
                  (     0          0          1      )

 cart.    s( 1) = (  1.0000000  0.0000000  0.0000000 )
                  (  0.0000000  1.0000000  0.0000000 )
                  (  0.0000000  0.0000000  1.0000000 )


      isym =  2     180 deg rotation - cart. axis [0,0,1]        

 cryst.   s( 2) = (    -1          0          0      )    f =(  0.5000000 )
                  (     0         -1          0      )       ( -0.0000000 )
                  (     0          0          1      )       (  0.5000000 )

 cart.    s( 2) = ( -1.0000000  0.0000000  0.0000000 )    f =(  0.5000000 )
                  (  0.0000000 -1.0000000  0.0000000 )       ( -0.0000000 )
                  (  0.0000000  0.0000000  1.0000000 )       (  0.7790845 )


      isym =  3     180 deg rotation - cart. axis [0,1,0]        

 cryst.   s( 3) = (    -1          0          0      )    f =( -0.0000000 )
                  (     0          1          0      )       (  0.5000000 )
                  (     0          0         -1      )       (  0.0000000 )

 cart.    s( 3) = ( -1.0000000  0.0000000  0.0000000 )    f =( -0.0000000 )
                  (  0.0000000  1.0000000  0.0000000 )       (  0.4606338 )
                  (  0.0000000  0.0000000 -1.0000000 )       (  0.0000000 )


      isym =  4     180 deg rotation - cart. axis [1,0,0]        

 cryst.   s( 4) = (     1          0          0      )    f =(  0.5000000 )
                  (     0         -1          0      )       (  0.5000000 )
                  (     0          0         -1      )       (  0.5000000 )

 cart.    s( 4) = (  1.0000000  0.0000000  0.0000000 )    f =(  0.5000000 )
                  (  0.0000000 -1.0000000  0.0000000 )       (  0.4606338 )
                  (  0.0000000  0.0000000 -1.0000000 )       (  0.7790845 )


      isym =  5     inversion                                    

 cryst.   s( 5) = (    -1          0          0      )
                  (     0         -1          0      )
                  (     0          0         -1      )

 cart.    s( 5) = ( -1.0000000  0.0000000  0.0000000 )
                  (  0.0000000 -1.0000000  0.0000000 )
                  (  0.0000000  0.0000000 -1.0000000 )


      isym =  6     inv. 180 deg rotation - cart. axis [0,0,1]   

 cryst.   s( 6) = (     1          0          0      )    f =(  0.5000000 )
                  (     0          1          0      )       (  0.0000000 )
                  (     0          0         -1      )       (  0.5000000 )

 cart.    s( 6) = (  1.0000000  0.0000000  0.0000000 )    f =(  0.5000000 )
                  (  0.0000000  1.0000000  0.0000000 )       (  0.0000000 )
                  (  0.0000000  0.0000000 -1.0000000 )       (  0.7790845 )


      isym =  7     inv. 180 deg rotation - cart. axis [0,1,0]   

 cryst.   s( 7) = (     1          0          0      )    f =(  0.0000000 )
                  (     0         -1          0      )       (  0.5000000 )
                  (     0          0          1      )       (  0.0000000 )

 cart.    s( 7) = (  1.0000000  0.0000000  0.0000000 )    f =(  0.0000000 )
                  (  0.0000000 -1.0000000  0.0000000 )       (  0.4606338 )
                  (  0.0000000  0.0000000  1.0000000 )       (  0.0000000 )


      isym =  8     inv. 180 deg rotation - cart. axis [1,0,0]   

 cryst.   s( 8) = (    -1          0          0      )    f =(  0.5000000 )
                  (     0          1          0      )       (  0.5000000 )
                  (     0          0          1      )       (  0.5000000 )

 cart.    s( 8) = ( -1.0000000  0.0000000  0.0000000 )    f =(  0.5000000 )
                  (  0.0000000  1.0000000  0.0000000 )       (  0.4606338 )
                  (  0.0000000  0.0000000  1.0000000 )       (  0.7790845 )


   Cartesian axes

     site n.     atom                  positions (alat units)
         1           Cr  tau(   1) = (   0.9788000   0.6909507   1.0600224  )
         2           Cr  tau(   2) = (   0.4788000   0.6909507   1.2772311  )
         3           Cr  tau(   3) = (   0.0212000   0.2303169   0.4981466  )
         4           Cr  tau(   4) = (   0.5212000   0.2303169   0.2809379  )
         5           As  tau(   5) = (   0.7349000   0.6909507   0.5875855  )
         6           As  tau(   6) = (   0.2349000   0.6909507   0.1914990  )
         7           As  tau(   7) = (   0.2651000   0.2303169   0.9705835  )
         8           As  tau(   8) = (   0.7651000   0.2303169   1.3666700  )
         9           Ru  tau(   9) = (   0.8580000   0.6909507   0.0948925  )
        10           Ru  tau(  10) = (   0.3580000   0.6909507   0.6841920  )
        11           Ru  tau(  11) = (   0.1420000   0.2303169   1.4632765  )
        12           Ru  tau(  12) = (   0.6420000   0.2303169   0.8739770  )

   Crystallographic axes

     site n.     atom                  positions (cryst. coord.)
         1           Cr  tau(   1) = (  0.9788000  0.7500000  0.6803000  )
         2           Cr  tau(   2) = (  0.4788000  0.7500000  0.8197000  )
         3           Cr  tau(   3) = (  0.0212000  0.2500000  0.3197000  )
         4           Cr  tau(   4) = (  0.5212000  0.2500000  0.1803000  )
         5           As  tau(   5) = (  0.7349000  0.7500000  0.3771000  )
         6           As  tau(   6) = (  0.2349000  0.7500000  0.1229000  )
         7           As  tau(   7) = (  0.2651000  0.2500000  0.6229000  )
         8           As  tau(   8) = (  0.7651000  0.2500000  0.8771000  )
         9           Ru  tau(   9) = (  0.8580000  0.7500000  0.0609000  )
        10           Ru  tau(  10) = (  0.3580000  0.7500000  0.4391000  )
        11           Ru  tau(  11) = (  0.1420000  0.2500000  0.9391000  )
        12           Ru  tau(  12) = (  0.6420000  0.2500000  0.5609000  )

     number of k points=    48  Marzari-Vanderbilt smearing, width (Ry)=  0.0100
                       cart. coord. in units 2pi/alat
        k(    1) = (   0.0000000   0.0000000   0.0000000), wk =   0.0059524
        k(    2) = (   0.0000000   0.0000000   0.1604447), wk =   0.0119048
        k(    3) = (   0.0000000   0.0000000  -0.3208895), wk =   0.0059524
        k(    4) = (   0.0000000   0.1550658   0.0000000), wk =   0.0119048
        k(    5) = (   0.0000000   0.1550658   0.1604447), wk =   0.0238095
        k(    6) = (   0.0000000   0.1550658  -0.3208895), wk =   0.0119048
        k(    7) = (   0.0000000   0.3101317   0.0000000), wk =   0.0119048
        k(    8) = (   0.0000000   0.3101317   0.1604447), wk =   0.0238095
        k(    9) = (   0.0000000   0.3101317  -0.3208895), wk =   0.0119048
        k(   10) = (   0.0000000   0.4651975   0.0000000), wk =   0.0119048
        k(   11) = (   0.0000000   0.4651975   0.1604447), wk =   0.0238095
        k(   12) = (   0.0000000   0.4651975  -0.3208895), wk =   0.0119048
        k(   13) = (   0.1666667   0.0000000   0.0000000), wk =   0.0119048
        k(   14) = (   0.1666667   0.0000000   0.1604447), wk =   0.0238095
        k(   15) = (   0.1666667   0.0000000  -0.3208895), wk =   0.0119048
        k(   16) = (   0.1666667   0.1550658   0.0000000), wk =   0.0238095
        k(   17) = (   0.1666667   0.1550658   0.1604447), wk =   0.0476190
        k(   18) = (   0.1666667   0.1550658  -0.3208895), wk =   0.0238095
        k(   19) = (   0.1666667   0.3101317   0.0000000), wk =   0.0238095
        k(   20) = (   0.1666667   0.3101317   0.1604447), wk =   0.0476190
        k(   21) = (   0.1666667   0.3101317  -0.3208895), wk =   0.0238095
        k(   22) = (   0.1666667   0.4651975   0.0000000), wk =   0.0238095
        k(   23) = (   0.1666667   0.4651975   0.1604447), wk =   0.0476190
        k(   24) = (   0.1666667   0.4651975  -0.3208895), wk =   0.0238095
        k(   25) = (   0.3333333   0.0000000   0.0000000), wk =   0.0119048
        k(   26) = (   0.3333333   0.0000000   0.1604447), wk =   0.0238095
        k(   27) = (   0.3333333   0.0000000  -0.3208895), wk =   0.0119048
        k(   28) = (   0.3333333   0.1550658   0.0000000), wk =   0.0238095
        k(   29) = (   0.3333333   0.1550658   0.1604447), wk =   0.0476190
        k(   30) = (   0.3333333   0.1550658  -0.3208895), wk =   0.0238095
        k(   31) = (   0.3333333   0.3101317   0.0000000), wk =   0.0238095
        k(   32) = (   0.3333333   0.3101317   0.1604447), wk =   0.0476190
        k(   33) = (   0.3333333   0.3101317  -0.3208895), wk =   0.0238095
        k(   34) = (   0.3333333   0.4651975   0.0000000), wk =   0.0238095
        k(   35) = (   0.3333333   0.4651975   0.1604447), wk =   0.0476190
        k(   36) = (   0.3333333   0.4651975  -0.3208895), wk =   0.0238095
        k(   37) = (  -0.5000000   0.0000000   0.0000000), wk =   0.0059524
        k(   38) = (  -0.5000000   0.0000000   0.1604447), wk =   0.0119048
        k(   39) = (  -0.5000000   0.0000000  -0.3208895), wk =   0.0059524
        k(   40) = (  -0.5000000   0.1550658   0.0000000), wk =   0.0119048
        k(   41) = (  -0.5000000   0.1550658   0.1604447), wk =   0.0238095
        k(   42) = (  -0.5000000   0.1550658  -0.3208895), wk =   0.0119048
        k(   43) = (  -0.5000000   0.3101317   0.0000000), wk =   0.0119048
        k(   44) = (  -0.5000000   0.3101317   0.1604447), wk =   0.0238095
        k(   45) = (  -0.5000000   0.3101317  -0.3208895), wk =   0.0119048
        k(   46) = (  -0.5000000   0.4651975   0.0000000), wk =   0.0119048
        k(   47) = (  -0.5000000   0.4651975   0.1604447), wk =   0.0238095
        k(   48) = (  -0.5000000   0.4651975  -0.3208895), wk =   0.0119048

                       cryst. coord.
        k(    1) = (   0.0000000   0.0000000   0.0000000), wk =   0.0059524
        k(    2) = (   0.0000000   0.0000000   0.2500000), wk =   0.0119048
        k(    3) = (   0.0000000   0.0000000  -0.5000000), wk =   0.0059524
        k(    4) = (   0.0000000   0.1428571   0.0000000), wk =   0.0119048
        k(    5) = (   0.0000000   0.1428571   0.2500000), wk =   0.0238095
        k(    6) = (   0.0000000   0.1428571  -0.5000000), wk =   0.0119048
        k(    7) = (   0.0000000   0.2857143   0.0000000), wk =   0.0119048
        k(    8) = (   0.0000000   0.2857143   0.2500000), wk =   0.0238095
        k(    9) = (   0.0000000   0.2857143  -0.5000000), wk =   0.0119048
        k(   10) = (   0.0000000   0.4285714   0.0000000), wk =   0.0119048
        k(   11) = (   0.0000000   0.4285714   0.2500000), wk =   0.0238095
        k(   12) = (   0.0000000   0.4285714  -0.5000000), wk =   0.0119048
        k(   13) = (   0.1666667   0.0000000   0.0000000), wk =   0.0119048
        k(   14) = (   0.1666667   0.0000000   0.2500000), wk =   0.0238095
        k(   15) = (   0.1666667   0.0000000  -0.5000000), wk =   0.0119048
        k(   16) = (   0.1666667   0.1428571   0.0000000), wk =   0.0238095
        k(   17) = (   0.1666667   0.1428571   0.2500000), wk =   0.0476190
        k(   18) = (   0.1666667   0.1428571  -0.5000000), wk =   0.0238095
        k(   19) = (   0.1666667   0.2857143   0.0000000), wk =   0.0238095
        k(   20) = (   0.1666667   0.2857143   0.2500000), wk =   0.0476190
        k(   21) = (   0.1666667   0.2857143  -0.5000000), wk =   0.0238095
        k(   22) = (   0.1666667   0.4285714   0.0000000), wk =   0.0238095
        k(   23) = (   0.1666667   0.4285714   0.2500000), wk =   0.0476190
        k(   24) = (   0.1666667   0.4285714  -0.5000000), wk =   0.0238095
        k(   25) = (   0.3333333   0.0000000   0.0000000), wk =   0.0119048
        k(   26) = (   0.3333333   0.0000000   0.2500000), wk =   0.0238095
        k(   27) = (   0.3333333   0.0000000  -0.5000000), wk =   0.0119048
        k(   28) = (   0.3333333   0.1428571   0.0000000), wk =   0.0238095
        k(   29) = (   0.3333333   0.1428571   0.2500000), wk =   0.0476190
        k(   30) = (   0.3333333   0.1428571  -0.5000000), wk =   0.0238095
        k(   31) = (   0.3333333   0.2857143   0.0000000), wk =   0.0238095
        k(   32) = (   0.3333333   0.2857143   0.2500000), wk =   0.0476190
        k(   33) = (   0.3333333   0.2857143  -0.5000000), wk =   0.0238095
        k(   34) = (   0.3333333   0.4285714   0.0000000), wk =   0.0238095
        k(   35) = (   0.3333333   0.4285714   0.2500000), wk =   0.0476190
        k(   36) = (   0.3333333   0.4285714  -0.5000000), wk =   0.0238095
        k(   37) = (  -0.5000000   0.0000000   0.0000000), wk =   0.0059524
        k(   38) = (  -0.5000000   0.0000000   0.2500000), wk =   0.0119048
        k(   39) = (  -0.5000000   0.0000000  -0.5000000), wk =   0.0059524
        k(   40) = (  -0.5000000   0.1428571   0.0000000), wk =   0.0119048
        k(   41) = (  -0.5000000   0.1428571   0.2500000), wk =   0.0238095
        k(   42) = (  -0.5000000   0.1428571  -0.5000000), wk =   0.0119048
        k(   43) = (  -0.5000000   0.2857143   0.0000000), wk =   0.0119048
        k(   44) = (  -0.5000000   0.2857143   0.2500000), wk =   0.0238095
        k(   45) = (  -0.5000000   0.2857143  -0.5000000), wk =   0.0119048
        k(   46) = (  -0.5000000   0.4285714   0.0000000), wk =   0.0119048
        k(   47) = (  -0.5000000   0.4285714   0.2500000), wk =   0.0238095
        k(   48) = (  -0.5000000   0.4285714  -0.5000000), wk =   0.0119048

     Dense  grid:   334953 G-vectors     FFT dimensions: (  80,  72, 120)

     Smooth grid:   118403 G-vectors     FFT dimensions: (  60,  50,  90)

     Dynamical RAM for                 wfc:      18.99 MB

     Dynamical RAM for     wfc (w. buffer):    1841.56 MB

     Dynamical RAM for           str. fact:      15.33 MB

     Dynamical RAM for           local pot:       0.00 MB

     Dynamical RAM for          nlocal pot:      39.78 MB

     Dynamical RAM for                qrad:       4.31 MB

     Dynamical RAM for          rho,v,vnew:      62.31 MB

     Dynamical RAM for               rhoin:      20.77 MB

     Dynamical RAM for            rho*nmix:     163.55 MB

     Dynamical RAM for           G-vectors:      20.07 MB

     Dynamical RAM for          h,s,v(r/c):       1.29 MB

     Dynamical RAM for          <psi|beta>:       0.23 MB

     Dynamical RAM for                 psi:      37.97 MB

     Dynamical RAM for                hpsi:      37.97 MB

     Dynamical RAM for                spsi:      37.97 MB

     Dynamical RAM for      wfcinit/wfcrot:      38.13 MB

     Dynamical RAM for           addusdens:     976.20 MB

     Dynamical RAM for          addusforce:    1006.89 MB

     Dynamical RAM for         addusstress:    1034.97 MB

     Estimated static dynamical RAM per process >       2.01 GB

     Estimated max dynamical RAM per process >       3.18 GB

     Atomic positions and unit cell read from directory:
     ./out/aiida.save/
 

     Check: negative core charge=   -0.000002
     Generating pointlists ...
     new r_m :   0.1605 (alat units)  2.1534 (a.u.) for type    1
     new r_m :   0.2193 (alat units)  2.9426 (a.u.) for type    2
     new r_m :   0.1605 (alat units)  2.1534 (a.u.) for type    3

     The initial density is read from file :
     ./out/aiida.save/charge-density


     negative rho (up, down):  0.000E+00 2.075E-02
     Starting wfcs from file

     total cpu time spent up to now is        5.1 secs

     per-process dynamical memory:   557.4 Mb

     Self-consistent Calculation
[tb_dev] Currently allocated     9.16E-05 Mbytes, locked:    0 /   2
[tb_pin] Currently allocated     0.00E+00 Mbytes, locked:    0 /   0

     iteration #  1     ecut=    40.00 Ry     beta= 0.20
     Davidson diagonalization with overlap

---- Real-time Memory Report at c_bands before calling an iterative solver
           697 MiB given to the printing process from OS
           563 MiB allocation reported by mallinfo(arena+hblkhd)
         59655 MiB available memory on the node where the printing process lives
     GPU memory used/free/total (MiB): 1240 / 15040 / 16280
------------------
     ethr =  1.00E-05,  avg # of iterations =  2.0

     Threshold (ethr) on eigenvalues was too large:
     Diagonalizing with lowered threshold

     Davidson diagonalization with overlap

---- Real-time Memory Report at c_bands before calling an iterative solver
          2896 MiB given to the printing process from OS
         -1388 MiB allocation reported by mallinfo(arena+hblkhd)
         55051 MiB available memory on the node where the printing process lives
     GPU memory used/free/total (MiB): 3064 / 13216 / 16280
------------------
     c_bands:  1 eigenvalues not converged
     ethr =  1.47E-07,  avg # of iterations =  4.9

     negative rho (up, down):  0.000E+00 2.075E-02

     total cpu time spent up to now is       30.6 secs

     total energy              =   -1525.37394985 Ry
     estimated scf accuracy    <       0.00021988 Ry

     total magnetization       =    27.97 Bohr mag/cell
     absolute magnetization    =    31.93 Bohr mag/cell
[tb_dev] Currently allocated     6.24E+00 Mbytes, locked:    0 /   8
[tb_pin] Currently allocated     0.00E+00 Mbytes, locked:    0 /   0

     iteration #  2     ecut=    40.00 Ry     beta= 0.20
     Davidson diagonalization with overlap

---- Real-time Memory Report at c_bands before calling an iterative solver
          2978 MiB given to the printing process from OS
         -1354 MiB allocation reported by mallinfo(arena+hblkhd)
         54994 MiB available memory on the node where the printing process lives
     GPU memory used/free/total (MiB): 3134 / 13146 / 16280
------------------
     ethr =  1.57E-07,  avg # of iterations =  1.6

     negative rho (up, down):  0.000E+00 2.075E-02

     total cpu time spent up to now is       39.7 secs

     total energy              =   -1525.37397632 Ry
     estimated scf accuracy    <       0.00011412 Ry

     total magnetization       =    27.96 Bohr mag/cell
     absolute magnetization    =    31.90 Bohr mag/cell
[tb_dev] Currently allocated     6.24E+00 Mbytes, locked:    0 /   8
[tb_pin] Currently allocated     0.00E+00 Mbytes, locked:    0 /   0

     iteration #  3     ecut=    40.00 Ry     beta= 0.20
     Davidson diagonalization with overlap

---- Real-time Memory Report at c_bands before calling an iterative solver
          2989 MiB given to the printing process from OS
         -1343 MiB allocation reported by mallinfo(arena+hblkhd)
         54983 MiB available memory on the node where the printing process lives
     GPU memory used/free/total (MiB): 3134 / 13146 / 16280
------------------
     ethr =  8.15E-08,  avg # of iterations =  1.2

     negative rho (up, down):  0.000E+00 2.075E-02

     total cpu time spent up to now is       48.4 secs

     total energy              =   -1525.37401637 Ry
     estimated scf accuracy    <       0.00007116 Ry

     total magnetization       =    27.97 Bohr mag/cell
     absolute magnetization    =    31.92 Bohr mag/cell
[tb_dev] Currently allocated     6.24E+00 Mbytes, locked:    0 /   8
[tb_pin] Currently allocated     0.00E+00 Mbytes, locked:    0 /   0

     iteration #  4     ecut=    40.00 Ry     beta= 0.20
     Davidson diagonalization with overlap

---- Real-time Memory Report at c_bands before calling an iterative solver
          2996 MiB given to the printing process from OS
         -1335 MiB allocation reported by mallinfo(arena+hblkhd)
         54978 MiB available memory on the node where the printing process lives
     GPU memory used/free/total (MiB): 3134 / 13146 / 16280
------------------
     ethr =  5.08E-08,  avg # of iterations =  3.6

     negative rho (up, down):  0.000E+00 2.075E-02

     total cpu time spent up to now is       59.8 secs

     total energy              =   -1525.37406862 Ry
     estimated scf accuracy    <       0.00004214 Ry

     total magnetization       =    27.97 Bohr mag/cell
     absolute magnetization    =    31.92 Bohr mag/cell
[tb_dev] Currently allocated     6.24E+00 Mbytes, locked:    0 /   8
[tb_pin] Currently allocated     0.00E+00 Mbytes, locked:    0 /   0

     iteration #  5     ecut=    40.00 Ry     beta= 0.20
     Davidson diagonalization with overlap

---- Real-time Memory Report at c_bands before calling an iterative solver
          3007 MiB given to the printing process from OS
         -1325 MiB allocation reported by mallinfo(arena+hblkhd)
         54967 MiB available memory on the node where the printing process lives
     GPU memory used/free/total (MiB): 3134 / 13146 / 16280
------------------
     ethr =  3.01E-08,  avg # of iterations =  4.4

     negative rho (up, down):  0.000E+00 2.075E-02

     total cpu time spent up to now is       73.1 secs

     total energy              =   -1525.37410903 Ry
     estimated scf accuracy    <       0.00005292 Ry

     total magnetization       =    27.96 Bohr mag/cell
     absolute magnetization    =    31.92 Bohr mag/cell
[tb_dev] Currently allocated     6.24E+00 Mbytes, locked:    0 /   8
[tb_pin] Currently allocated     0.00E+00 Mbytes, locked:    0 /   0

     iteration #  6     ecut=    40.00 Ry     beta= 0.20
     Davidson diagonalization with overlap

---- Real-time Memory Report at c_bands before calling an iterative solver
          3018 MiB given to the printing process from OS
         -1314 MiB allocation reported by mallinfo(arena+hblkhd)
         54957 MiB available memory on the node where the printing process lives
     GPU memory used/free/total (MiB): 3134 / 13146 / 16280
------------------
     ethr =  3.01E-08,  avg # of iterations =  1.1

     negative rho (up, down):  0.000E+00 2.075E-02

     total cpu time spent up to now is       81.6 secs

     total energy              =   -1525.37413374 Ry
     estimated scf accuracy    <       0.00004210 Ry

     total magnetization       =    27.96 Bohr mag/cell
     absolute magnetization    =    31.93 Bohr mag/cell
[tb_dev] Currently allocated     6.24E+00 Mbytes, locked:    0 /   8
[tb_pin] Currently allocated     0.00E+00 Mbytes, locked:    0 /   0

     iteration #  7     ecut=    40.00 Ry     beta= 0.20
     Davidson diagonalization with overlap

---- Real-time Memory Report at c_bands before calling an iterative solver
          3018 MiB given to the printing process from OS
         -1314 MiB allocation reported by mallinfo(arena+hblkhd)
         54956 MiB available memory on the node where the printing process lives
     GPU memory used/free/total (MiB): 3134 / 13146 / 16280
------------------
     ethr =  3.01E-08,  avg # of iterations =  4.7

     negative rho (up, down):  0.000E+00 2.075E-02

     total cpu time spent up to now is       95.7 secs

     total energy              =   -1525.37417851 Ry
     estimated scf accuracy    <       0.00008175 Ry

     total magnetization       =    27.97 Bohr mag/cell
     absolute magnetization    =    31.96 Bohr mag/cell
[tb_dev] Currently allocated     6.24E+00 Mbytes, locked:    0 /   8
[tb_pin] Currently allocated     0.00E+00 Mbytes, locked:    0 /   0

     iteration #  8     ecut=    40.00 Ry     beta= 0.20
     Davidson diagonalization with overlap

---- Real-time Memory Report at c_bands before calling an iterative solver
          3033 MiB given to the printing process from OS
         -1299 MiB allocation reported by mallinfo(arena+hblkhd)
         54943 MiB available memory on the node where the printing process lives
     GPU memory used/free/total (MiB): 3134 / 13146 / 16280
------------------
     ethr =  3.01E-08,  avg # of iterations =  1.0

     negative rho (up, down):  0.000E+00 2.075E-02

     total cpu time spent up to now is      104.3 secs

     total energy              =   -1525.37419511 Ry
     estimated scf accuracy    <       0.00008574 Ry

     total magnetization       =    27.97 Bohr mag/cell
     absolute magnetization    =    31.96 Bohr mag/cell
[tb_dev] Currently allocated     6.24E+00 Mbytes, locked:    0 /   8
[tb_pin] Currently allocated     0.00E+00 Mbytes, locked:    0 /   0

     iteration #  9     ecut=    40.00 Ry     beta= 0.20
     Davidson diagonalization with overlap

---- Real-time Memory Report at c_bands before calling an iterative solver
          3033 MiB given to the printing process from OS
         -1299 MiB allocation reported by mallinfo(arena+hblkhd)
         54944 MiB available memory on the node where the printing process lives
     GPU memory used/free/total (MiB): 3134 / 13146 / 16280
------------------
     ethr =  3.01E-08,  avg # of iterations =  3.3

     negative rho (up, down):  0.000E+00 2.075E-02

     total cpu time spent up to now is      115.5 secs

     total energy              =   -1525.37422480 Ry
     estimated scf accuracy    <       0.00004662 Ry

     total magnetization       =    27.97 Bohr mag/cell
     absolute magnetization    =    31.96 Bohr mag/cell
[tb_dev] Currently allocated     6.24E+00 Mbytes, locked:    0 /   8
[tb_pin] Currently allocated     0.00E+00 Mbytes, locked:    0 /   0

     iteration # 10     ecut=    40.00 Ry     beta= 0.20
     Davidson diagonalization with overlap

---- Real-time Memory Report at c_bands before calling an iterative solver
          3043 MiB given to the printing process from OS
         -1288 MiB allocation reported by mallinfo(arena+hblkhd)
         54933 MiB available memory on the node where the printing process lives
     GPU memory used/free/total (MiB): 3134 / 13146 / 16280
------------------
     c_bands:  1 eigenvalues not converged
     ethr =  3.01E-08,  avg # of iterations =  5.6

     negative rho (up, down):  0.000E+00 2.075E-02

     total cpu time spent up to now is      130.5 secs

     total energy              =   -1525.37427943 Ry
     estimated scf accuracy    <       0.00011466 Ry

     total magnetization       =    27.96 Bohr mag/cell
     absolute magnetization    =    31.94 Bohr mag/cell
[tb_dev] Currently allocated     6.24E+00 Mbytes, locked:    0 /   8
[tb_pin] Currently allocated     0.00E+00 Mbytes, locked:    0 /   0

     iteration # 11     ecut=    40.00 Ry     beta= 0.20
     Davidson diagonalization with overlap

---- Real-time Memory Report at c_bands before calling an iterative solver
          3043 MiB given to the printing process from OS
         -1288 MiB allocation reported by mallinfo(arena+hblkhd)
         54934 MiB available memory on the node where the printing process lives
     GPU memory used/free/total (MiB): 3134 / 13146 / 16280
------------------
     ethr =  3.01E-08,  avg # of iterations =  3.1

     negative rho (up, down):  0.000E+00 2.075E-02

     total cpu time spent up to now is      141.5 secs

     total energy              =   -1525.37426429 Ry
     estimated scf accuracy    <       0.00009833 Ry

     total magnetization       =    27.96 Bohr mag/cell
     absolute magnetization    =    31.94 Bohr mag/cell
[tb_dev] Currently allocated     6.24E+00 Mbytes, locked:    0 /   8
[tb_pin] Currently allocated     0.00E+00 Mbytes, locked:    0 /   0

     iteration # 12     ecut=    40.00 Ry     beta= 0.20
     Davidson diagonalization with overlap

---- Real-time Memory Report at c_bands before calling an iterative solver
          3051 MiB given to the printing process from OS
         -1288 MiB allocation reported by mallinfo(arena+hblkhd)
         54934 MiB available memory on the node where the printing process lives
     GPU memory used/free/total (MiB): 3134 / 13146 / 16280
------------------
     c_bands:  1 eigenvalues not converged
     ethr =  3.01E-08,  avg # of iterations =  6.6

     negative rho (up, down):  0.000E+00 2.075E-02

     total cpu time spent up to now is      158.2 secs

     total energy              =   -1525.37438125 Ry
     estimated scf accuracy    <       0.00002552 Ry

     total magnetization       =    27.96 Bohr mag/cell
     absolute magnetization    =    31.98 Bohr mag/cell
[tb_dev] Currently allocated     6.24E+00 Mbytes, locked:    0 /   8
[tb_pin] Currently allocated     0.00E+00 Mbytes, locked:    0 /   0

     iteration # 13     ecut=    40.00 Ry     beta= 0.20
     Davidson diagonalization with overlap

---- Real-time Memory Report at c_bands before calling an iterative solver
          3051 MiB given to the printing process from OS
         -1288 MiB allocation reported by mallinfo(arena+hblkhd)
         54934 MiB available memory on the node where the printing process lives
     GPU memory used/free/total (MiB): 3134 / 13146 / 16280
------------------
     ethr =  1.82E-08,  avg # of iterations =  5.8

     negative rho (up, down):  0.000E+00 2.075E-02

     total cpu time spent up to now is      173.5 secs

     total energy              =   -1525.37429092 Ry
     estimated scf accuracy    <       0.00012545 Ry

     total magnetization       =    27.96 Bohr mag/cell
     absolute magnetization    =    31.97 Bohr mag/cell
[tb_dev] Currently allocated     6.24E+00 Mbytes, locked:    0 /   8
[tb_pin] Currently allocated     0.00E+00 Mbytes, locked:    0 /   0

     iteration # 14     ecut=    40.00 Ry     beta= 0.20
     Davidson diagonalization with overlap

---- Real-time Memory Report at c_bands before calling an iterative solver
          3051 MiB given to the printing process from OS
         -1288 MiB allocation reported by mallinfo(arena+hblkhd)
         54934 MiB available memory on the node where the printing process lives
     GPU memory used/free/total (MiB): 3134 / 13146 / 16280
------------------
     c_bands:  1 eigenvalues not converged
     c_bands:  1 eigenvalues not converged
     ethr =  1.82E-08,  avg # of iterations =  7.0

     negative rho (up, down):  0.000E+00 2.075E-02

     total cpu time spent up to now is      190.5 secs

     total energy              =   -1525.37446295 Ry
     estimated scf accuracy    <       0.00008078 Ry

     total magnetization       =    27.96 Bohr mag/cell
     absolute magnetization    =    31.99 Bohr mag/cell
[tb_dev] Currently allocated     6.24E+00 Mbytes, locked:    0 /   8
[tb_pin] Currently allocated     0.00E+00 Mbytes, locked:    0 /   0

     iteration # 15     ecut=    40.00 Ry     beta= 0.20
     Davidson diagonalization with overlap

---- Real-time Memory Report at c_bands before calling an iterative solver
          3051 MiB given to the printing process from OS
         -1288 MiB allocation reported by mallinfo(arena+hblkhd)
         54935 MiB available memory on the node where the printing process lives
     GPU memory used/free/total (MiB): 3134 / 13146 / 16280
------------------
     ethr =  1.82E-08,  avg # of iterations =  4.0

     negative rho (up, down):  0.000E+00 2.075E-02

     total cpu time spent up to now is      202.9 secs

     total energy              =   -1525.37444282 Ry
     estimated scf accuracy    <       0.00000765 Ry

     total magnetization       =    27.96 Bohr mag/cell
     absolute magnetization    =    32.00 Bohr mag/cell
[tb_dev] Currently allocated     6.24E+00 Mbytes, locked:    0 /   8
[tb_pin] Currently allocated     0.00E+00 Mbytes, locked:    0 /   0

     iteration # 16     ecut=    40.00 Ry     beta= 0.20
     Davidson diagonalization with overlap

---- Real-time Memory Report at c_bands before calling an iterative solver
          3051 MiB given to the printing process from OS
         -1288 MiB allocation reported by mallinfo(arena+hblkhd)
         54935 MiB available memory on the node where the printing process lives
     GPU memory used/free/total (MiB): 3134 / 13146 / 16280
------------------
     c_bands:  1 eigenvalues not converged
     c_bands:  1 eigenvalues not converged
     ethr =  5.47E-09,  avg # of iterations =  6.9

     negative rho (up, down):  0.000E+00 2.075E-02

     total cpu time spent up to now is      219.7 secs

     total energy              =   -1525.37447819 Ry
     estimated scf accuracy    <       0.00000682 Ry

     total magnetization       =    27.96 Bohr mag/cell
     absolute magnetization    =    32.00 Bohr mag/cell
[tb_dev] Currently allocated     6.24E+00 Mbytes, locked:    0 /   8
[tb_pin] Currently allocated     0.00E+00 Mbytes, locked:    0 /   0

     iteration # 17     ecut=    40.00 Ry     beta= 0.20
     Davidson diagonalization with overlap

---- Real-time Memory Report at c_bands before calling an iterative solver
          3051 MiB given to the printing process from OS
         -1288 MiB allocation reported by mallinfo(arena+hblkhd)
         54934 MiB available memory on the node where the printing process lives
     GPU memory used/free/total (MiB): 3134 / 13146 / 16280
------------------
     c_bands:  1 eigenvalues not converged
     ethr =  4.87E-09,  avg # of iterations =  5.9

     negative rho (up, down):  0.000E+00 2.075E-02

     total cpu time spent up to now is      235.2 secs

     total energy              =   -1525.37448285 Ry
     estimated scf accuracy    <       0.00000057 Ry

     total magnetization       =    27.96 Bohr mag/cell
     absolute magnetization    =    32.01 Bohr mag/cell
[tb_dev] Currently allocated     6.24E+00 Mbytes, locked:    0 /   8
[tb_pin] Currently allocated     0.00E+00 Mbytes, locked:    0 /   0

     iteration # 18     ecut=    40.00 Ry     beta= 0.20
     Davidson diagonalization with overlap

---- Real-time Memory Report at c_bands before calling an iterative solver
          3051 MiB given to the printing process from OS
         -1288 MiB allocation reported by mallinfo(arena+hblkhd)
         54935 MiB available memory on the node where the printing process lives
     GPU memory used/free/total (MiB): 3134 / 13146 / 16280
------------------
     c_bands:  1 eigenvalues not converged
     c_bands:  2 eigenvalues not converged
     ethr =  4.06E-10,  avg # of iterations =  8.6

     negative rho (up, down):  0.000E+00 2.075E-02

     total cpu time spent up to now is      255.6 secs

     total energy              =   -1525.37449477 Ry
     estimated scf accuracy    <       0.00000194 Ry

     total magnetization       =    27.96 Bohr mag/cell
     absolute magnetization    =    32.00 Bohr mag/cell
[tb_dev] Currently allocated     6.24E+00 Mbytes, locked:    0 /   8
[tb_pin] Currently allocated     0.00E+00 Mbytes, locked:    0 /   0

     iteration # 19     ecut=    40.00 Ry     beta= 0.20
     Davidson diagonalization with overlap

---- Real-time Memory Report at c_bands before calling an iterative solver
          3051 MiB given to the printing process from OS
         -1288 MiB allocation reported by mallinfo(arena+hblkhd)
         54935 MiB available memory on the node where the printing process lives
     GPU memory used/free/total (MiB): 3134 / 13146 / 16280
------------------
     c_bands:  1 eigenvalues not converged
     c_bands:  1 eigenvalues not converged
     c_bands:  2 eigenvalues not converged
     ethr =  4.06E-10,  avg # of iterations =  7.9

     negative rho (up, down):  0.000E+00 2.075E-02

     total cpu time spent up to now is      274.2 secs

     total energy              =   -1525.37450257 Ry
     estimated scf accuracy    <       0.00000028 Ry

     total magnetization       =    27.96 Bohr mag/cell
     absolute magnetization    =    32.00 Bohr mag/cell
[tb_dev] Currently allocated     6.24E+00 Mbytes, locked:    0 /   8
[tb_pin] Currently allocated     0.00E+00 Mbytes, locked:    0 /   0

     iteration # 20     ecut=    40.00 Ry     beta= 0.20
     Davidson diagonalization with overlap

---- Real-time Memory Report at c_bands before calling an iterative solver
          3051 MiB given to the printing process from OS
         -1288 MiB allocation reported by mallinfo(arena+hblkhd)
         54936 MiB available memory on the node where the printing process lives
     GPU memory used/free/total (MiB): 3134 / 13146 / 16280
------------------
     c_bands:  1 eigenvalues not converged
     ethr =  2.00E-10,  avg # of iterations =  6.5

     negative rho (up, down):  0.000E+00 2.075E-02

     total cpu time spent up to now is      290.8 secs

     total energy              =   -1525.37450372 Ry
     estimated scf accuracy    <       0.00000018 Ry

     total magnetization       =    27.96 Bohr mag/cell
     absolute magnetization    =    32.01 Bohr mag/cell
[tb_dev] Currently allocated     6.24E+00 Mbytes, locked:    0 /   8
[tb_pin] Currently allocated     0.00E+00 Mbytes, locked:    0 /   0

     iteration # 21     ecut=    40.00 Ry     beta= 0.20
     Davidson diagonalization with overlap

---- Real-time Memory Report at c_bands before calling an iterative solver
          3051 MiB given to the printing process from OS
         -1288 MiB allocation reported by mallinfo(arena+hblkhd)
         54936 MiB available memory on the node where the printing process lives
     GPU memory used/free/total (MiB): 3134 / 13146 / 16280
------------------
     c_bands:  1 eigenvalues not converged
     ethr =  1.28E-10,  avg # of iterations =  5.2

     negative rho (up, down):  0.000E+00 2.075E-02

     total cpu time spent up to now is      305.1 secs

     total energy              =   -1525.37450396 Ry
     estimated scf accuracy    <       0.00000014 Ry

     total magnetization       =    27.96 Bohr mag/cell
     absolute magnetization    =    32.01 Bohr mag/cell
[tb_dev] Currently allocated     6.24E+00 Mbytes, locked:    0 /   8
[tb_pin] Currently allocated     0.00E+00 Mbytes, locked:    0 /   0

     iteration # 22     ecut=    40.00 Ry     beta= 0.20
     Davidson diagonalization with overlap

---- Real-time Memory Report at c_bands before calling an iterative solver
          3051 MiB given to the printing process from OS
         -1288 MiB allocation reported by mallinfo(arena+hblkhd)
         54935 MiB available memory on the node where the printing process lives
     GPU memory used/free/total (MiB): 3134 / 13146 / 16280
------------------
     c_bands:  1 eigenvalues not converged
     ethr =  9.72E-11,  avg # of iterations =  5.5

     negative rho (up, down):  0.000E+00 2.075E-02

     total cpu time spent up to now is      320.1 secs

     total energy              =   -1525.37450415 Ry
     estimated scf accuracy    <       0.00000006 Ry

     total magnetization       =    27.96 Bohr mag/cell
     absolute magnetization    =    32.01 Bohr mag/cell
[tb_dev] Currently allocated     6.24E+00 Mbytes, locked:    0 /   8
[tb_pin] Currently allocated     0.00E+00 Mbytes, locked:    0 /   0

     iteration # 23     ecut=    40.00 Ry     beta= 0.20
     Davidson diagonalization with overlap

---- Real-time Memory Report at c_bands before calling an iterative solver
          3051 MiB given to the printing process from OS
         -1288 MiB allocation reported by mallinfo(arena+hblkhd)
         54936 MiB available memory on the node where the printing process lives
     GPU memory used/free/total (MiB): 3134 / 13146 / 16280
------------------
     ethr =  3.94E-11,  avg # of iterations =  4.3

     negative rho (up, down):  0.000E+00 2.075E-02

     total cpu time spent up to now is      332.5 secs

     total energy              =   -1525.37450416 Ry
     estimated scf accuracy    <       0.00000002 Ry

     total magnetization       =    27.96 Bohr mag/cell
     absolute magnetization    =    32.01 Bohr mag/cell
[tb_dev] Currently allocated     6.24E+00 Mbytes, locked:    0 /   8
[tb_pin] Currently allocated     0.00E+00 Mbytes, locked:    0 /   0

     iteration # 24     ecut=    40.00 Ry     beta= 0.20
     Davidson diagonalization with overlap

---- Real-time Memory Report at c_bands before calling an iterative solver
          3051 MiB given to the printing process from OS
         -1288 MiB allocation reported by mallinfo(arena+hblkhd)
         54937 MiB available memory on the node where the printing process lives
     GPU memory used/free/total (MiB): 3134 / 13146 / 16280
------------------
     ethr =  1.14E-11,  avg # of iterations =  9.0

     negative rho (up, down):  0.000E+00 2.075E-02

     total cpu time spent up to now is      353.2 secs

     total energy              =   -1525.37450405 Ry
     estimated scf accuracy    <       0.00000040 Ry

     total magnetization       =    27.96 Bohr mag/cell
     absolute magnetization    =    32.01 Bohr mag/cell
[tb_dev] Currently allocated     6.24E+00 Mbytes, locked:    0 /   8
[tb_pin] Currently allocated     0.00E+00 Mbytes, locked:    0 /   0

     iteration # 25     ecut=    40.00 Ry     beta= 0.20
     Davidson diagonalization with overlap

---- Real-time Memory Report at c_bands before calling an iterative solver
          3054 MiB given to the printing process from OS
         -1288 MiB allocation reported by mallinfo(arena+hblkhd)
         54936 MiB available memory on the node where the printing process lives
     GPU memory used/free/total (MiB): 3134 / 13146 / 16280
------------------
     c_bands:  2 eigenvalues not converged
     ethr =  1.14E-11,  avg # of iterations =  9.5

     negative rho (up, down):  0.000E+00 2.075E-02

     total cpu time spent up to now is      375.0 secs

     total energy              =   -1525.37450420 Ry
     estimated scf accuracy    <       0.00000018 Ry

     total magnetization       =    27.96 Bohr mag/cell
     absolute magnetization    =    32.01 Bohr mag/cell
[tb_dev] Currently allocated     6.24E+00 Mbytes, locked:    0 /   8
[tb_pin] Currently allocated     0.00E+00 Mbytes, locked:    0 /   0

     iteration # 26     ecut=    40.00 Ry     beta= 0.20
     Davidson diagonalization with overlap

---- Real-time Memory Report at c_bands before calling an iterative solver
          3054 MiB given to the printing process from OS
         -1288 MiB allocation reported by mallinfo(arena+hblkhd)
         54929 MiB available memory on the node where the printing process lives
     GPU memory used/free/total (MiB): 3134 / 13146 / 16280
------------------
     ethr =  1.14E-11,  avg # of iterations =  6.3

     negative rho (up, down):  0.000E+00 2.075E-02

     total cpu time spent up to now is      390.6 secs

     total energy              =   -1525.37450421 Ry
     estimated scf accuracy    <          5.2E-09 Ry

     total magnetization       =    27.96 Bohr mag/cell
     absolute magnetization    =    32.01 Bohr mag/cell
[tb_dev] Currently allocated     6.24E+00 Mbytes, locked:    0 /   8
[tb_pin] Currently allocated     0.00E+00 Mbytes, locked:    0 /   0

     iteration # 27     ecut=    40.00 Ry     beta= 0.20
     Davidson diagonalization with overlap

---- Real-time Memory Report at c_bands before calling an iterative solver
          3054 MiB given to the printing process from OS
         -1288 MiB allocation reported by mallinfo(arena+hblkhd)
         54936 MiB available memory on the node where the printing process lives
     GPU memory used/free/total (MiB): 3134 / 13146 / 16280
------------------
     ethr =  3.73E-12,  avg # of iterations =  5.6

     negative rho (up, down):  0.000E+00 2.075E-02

     total cpu time spent up to now is      405.5 secs

     total energy              =   -1525.37450421 Ry
     estimated scf accuracy    <          7.4E-09 Ry

     total magnetization       =    27.96 Bohr mag/cell
     absolute magnetization    =    32.01 Bohr mag/cell
[tb_dev] Currently allocated     6.24E+00 Mbytes, locked:    0 /   8
[tb_pin] Currently allocated     0.00E+00 Mbytes, locked:    0 /   0

     iteration # 28     ecut=    40.00 Ry     beta= 0.20
     Davidson diagonalization with overlap

---- Real-time Memory Report at c_bands before calling an iterative solver
          3054 MiB given to the printing process from OS
         -1288 MiB allocation reported by mallinfo(arena+hblkhd)
         54936 MiB available memory on the node where the printing process lives
     GPU memory used/free/total (MiB): 3134 / 13146 / 16280
------------------
     ethr =  3.73E-12,  avg # of iterations =  3.7

     negative rho (up, down):  0.000E+00 2.075E-02
 
     Magnetic moment per site  (integrated on atomic sphere of radius R)
     atom   1 (R=0.219)  charge= 13.0492  magn=  4.7006
     atom   2 (R=0.219)  charge= 13.0492  magn=  4.7006
     atom   3 (R=0.219)  charge= 13.0492  magn=  4.7006
     atom   4 (R=0.219)  charge= 13.0492  magn=  4.7006
     atom   5 (R=0.160)  charge=  3.0305  magn= -0.3044
     atom   6 (R=0.160)  charge=  3.0305  magn= -0.3044
     atom   7 (R=0.160)  charge=  3.0305  magn= -0.3044
     atom   8 (R=0.160)  charge=  3.0305  magn= -0.3044
     atom   9 (R=0.160)  charge= 13.8417  magn=  2.1395
     atom  10 (R=0.160)  charge= 13.8417  magn=  2.1395
     atom  11 (R=0.160)  charge= 13.8417  magn=  2.1395
     atom  12 (R=0.160)  charge= 13.8417  magn=  2.1395

     total cpu time spent up to now is      417.3 secs

     End of self-consistent calculation

 ------ SPIN UP ------------


          k = 0.0000 0.0000 0.0000 ( 14849 PWs)   bands (ev):

   -69.8738 -69.8738 -69.8737 -69.8737 -68.9814 -68.9814 -68.9812 -68.9812
   -40.5202 -40.5202 -40.5173 -40.5173 -40.5020 -40.5020 -40.5020 -40.5020
   -40.4870 -40.4870 -40.4867 -40.4867 -40.1114 -40.1114 -40.1093 -40.1093
   -40.0138 -40.0138 -40.0127 -40.0127 -39.9615 -39.9615 -39.9612 -39.9612
    -6.6871  -6.5970  -6.5216  -6.4663   0.2996   0.5339   0.5762   0.5773
     0.6428   0.6569   0.6729   0.7231   0.7495   0.7600   0.8388   0.9676
     1.0616   1.0634   1.0648   1.1208   1.1639   1.1821   1.2026   1.3660
     1.5310   1.5831   1.5954   1.6231   1.6530   1.8191   1.9157   1.9802
     2.0199   2.0241   2.0730   2.1021   2.1068   2.1651   2.1929   2.2123
     2.2180   2.2300   2.2451   2.2463   2.2860   2.2998   2.3080   2.3265
     2.3654   2.4835   2.4857   2.9542

     occupation numbers 
     1.0000   1.0000   1.0000   1.0000   1.0000   1.0000   1.0000   1.0000
     1.0000   1.0000   1.0000   1.0000   1.0000   1.0000   1.0000   1.0000
     1.0000   1.0000   1.0000   1.0000   1.0000   1.0000   1.0000   1.0000
     1.0000   1.0000   1.0000   1.0000   1.0000   1.0000   1.0000   1.0000
     1.0000   1.0000   1.0000   1.0000   1.0000   1.0000   1.0000   1.0000
     1.0000   1.0000   1.0000   1.0000   1.0000   1.0000   1.0000   1.0000
     1.0000   1.0000   1.0000   1.0000   1.0000   1.0000   1.0000   1.0000
     1.0000   1.0000   1.0000   1.0000   1.0000   1.0000   1.0000   1.0000
     1.0000   1.0000   1.0000   1.0000   1.0000   1.0000   1.0000   1.0000
     1.0000   1.0000   1.0000   1.0000   1.0000   1.0000   1.0000   1.0000
     1.0000   1.0001   1.0002   0.4051

          k = 0.0000 0.0000 0.1604 ( 14838 PWs)   bands (ev):

   -69.8738 -69.8738 -69.8737 -69.8737 -68.9814 -68.9814 -68.9812 -68.9812
   -40.5202 -40.5202 -40.5173 -40.5173 -40.5020 -40.5020 -40.5020 -40.5020
   -40.4870 -40.4870 -40.4867 -40.4867 -40.1114 -40.1114 -40.1093 -40.1093
   -40.0138 -40.0138 -40.0127 -40.0127 -39.9615 -39.9615 -39.9612 -39.9612
    -6.6772  -6.6165  -6.5072  -6.4712   0.3029   0.4561   0.5897   0.5936
     0.6155   0.6529   0.6705   0.6870   0.6935   0.7468   0.9502   1.0635
     1.0662   1.0691   1.0710   1.1107   1.1616   1.1997   1.2604   1.4105
     1.5377   1.5718   1.5928   1.6486   1.6941   1.7196   1.8066   1.9931
     1.9991   2.0140   2.0323   2.0903   2.1312   2.1541   2.1700   2.1933
     2.2297   2.2431   2.2638   2.2753   2.3122   2.3144   2.3286   2.3642
     2.3794   2.4755   2.4790   2.7150

     occupation numbers 
     1.0000   1.0000   1.0000   1.0000   1.0000   1.0000   1.0000   1.0000
     1.0000   1.0000   1.0000   1.0000   1.0000   1.0000   1.0000   1.0000
     1.0000   1.0000   1.0000   1.0000   1.0000   1.0000   1.0000   1.0000
     1.0000   1.0000   1.0000   1.0000   1.0000   1.0000   1.0000   1.0000
     1.0000   1.0000   1.0000   1.0000   1.0000   1.0000   1.0000   1.0000
     1.0000   1.0000   1.0000   1.0000   1.0000   1.0000   1.0000   1.0000
     1.0000   1.0000   1.0000   1.0000   1.0000   1.0000   1.0000   1.0000
     1.0000   1.0000   1.0000   1.0000   1.0000   1.0000   1.0000   1.0000
     1.0000   1.0000   1.0000   1.0000   1.0000   1.0000   1.0000   1.0000
     1.0000   1.0000   1.0000   1.0000   1.0000   1.0000   1.0000   1.0000
     1.0000   1.0001   1.0001   1.0630

          k = 0.0000 0.0000-0.3209 ( 14878 PWs)   bands (ev):

   -69.8738 -69.8738 -69.8737 -69.8737 -68.9814 -68.9814 -68.9812 -68.9812
   -40.5202 -40.5202 -40.5173 -40.5173 -40.5020 -40.5020 -40.5020 -40.5020
   -40.4870 -40.4870 -40.4867 -40.4867 -40.1114 -40.1114 -40.1093 -40.1093
   -40.0138 -40.0138 -40.0127 -40.0127 -39.9615 -39.9615 -39.9612 -39.9612
    -6.6504  -6.6504  -6.4856  -6.4856   0.3481   0.3481   0.5884   0.5884
     0.6392   0.6392   0.6606   0.6606   0.7069   0.7069   1.0689   1.0689
     1.0710   1.0710   1.0860   1.0860   1.1942   1.1942   1.4504   1.4504
     1.5156   1.5156   1.5652   1.5652   1.7643   1.7643   1.7845   1.7845
     2.0189   2.0189   2.0465   2.0465   2.1656   2.1656   2.1798   2.1798
     2.2353   2.2353   2.2614   2.2614   2.3308   2.3308   2.3879   2.3879
     2.4440   2.4440   2.4901   2.4901

     occupation numbers 
     1.0000   1.0000   1.0000   1.0000   1.0000   1.0000   1.0000   1.0000
     1.0000   1.0000   1.0000   1.0000   1.0000   1.0000   1.0000   1.0000
     1.0000   1.0000   1.0000   1.0000   1.0000   1.0000   1.0000   1.0000
     1.0000   1.0000   1.0000   1.0000   1.0000   1.0000   1.0000   1.0000
     1.0000   1.0000   1.0000   1.0000   1.0000   1.0000   1.0000   1.0000
     1.0000   1.0000   1.0000   1.0000   1.0000   1.0000   1.0000   1.0000
     1.0000   1.0000   1.0000   1.0000   1.0000   1.0000   1.0000   1.0000
     1.0000   1.0000   1.0000   1.0000   1.0000   1.0000   1.0000   1.0000
     1.0000   1.0000   1.0000   1.0000   1.0000   1.0000   1.0000   1.0000
     1.0000   1.0000   1.0000   1.0000   1.0000   1.0000   1.0000   1.0000
     1.0000   1.0000   1.0002   1.0002

          k = 0.0000 0.1551 0.0000 ( 14841 PWs)   bands (ev):

   -69.8738 -69.8738 -69.8737 -69.8737 -68.9814 -68.9814 -68.9812 -68.9812
   -40.5202 -40.5202 -40.5173 -40.5173 -40.5020 -40.5020 -40.5020 -40.5020
   -40.4870 -40.4870 -40.4867 -40.4867 -40.1113 -40.1113 -40.1094 -40.1094
   -40.0137 -40.0137 -40.0127 -40.0127 -39.9615 -39.9615 -39.9612 -39.9612
    -6.6805  -6.5992  -6.5178  -6.4680   0.3083   0.3483   0.5766   0.6107
     0.6391   0.6731   0.6869   0.7536   0.7752   0.7786   0.8538   0.9808
     1.0160   1.0505   1.0574   1.0763   1.1623   1.1761   1.2447   1.3544
     1.4942   1.5312   1.5756   1.5942   1.7760   1.7793   1.9205   1.9729
     2.0169   2.0466   2.0561   2.0844   2.1189   2.1687   2.1714   2.1963
     2.2237   2.2344   2.2614   2.2882   2.2916   2.3113   2.3460   2.3650
     2.3870   2.4712   2.5012   2.8047

     occupation numbers 
     1.0000   1.0000   1.0000   1.0000   1.0000   1.0000   1.0000   1.0000
     1.0000   1.0000   1.0000   1.0000   1.0000   1.0000   1.0000   1.0000
     1.0000   1.0000   1.0000   1.0000   1.0000   1.0000   1.0000   1.0000
     1.0000   1.0000   1.0000   1.0000   1.0000   1.0000   1.0000   1.0000
     1.0000   1.0000   1.0000   1.0000   1.0000   1.0000   1.0000   1.0000
     1.0000   1.0000   1.0000   1.0000   1.0000   1.0000   1.0000   1.0000
     1.0000   1.0000   1.0000   1.0000   1.0000   1.0000   1.0000   1.0000
     1.0000   1.0000   1.0000   1.0000   1.0000   1.0000   1.0000   1.0000
     1.0000   1.0000   1.0000   1.0000   1.0000   1.0000   1.0000   1.0000
     1.0000   1.0000   1.0000   1.0000   1.0000   1.0000   1.0000   1.0000
     1.0000   1.0001   1.0003   1.0538

          k = 0.0000 0.1551 0.1604 ( 14845 PWs)   bands (ev):

   -69.8738 -69.8738 -69.8737 -69.8737 -68.9814 -68.9814 -68.9812 -68.9812
   -40.5202 -40.5202 -40.5173 -40.5173 -40.5020 -40.5020 -40.5020 -40.5020
   -40.4870 -40.4870 -40.4867 -40.4867 -40.1113 -40.1113 -40.1094 -40.1094
   -40.0137 -40.0137 -40.0127 -40.0127 -39.9615 -39.9615 -39.9612 -39.9612
    -6.6713  -6.6161  -6.5056  -6.4726   0.2859   0.3206   0.5795   0.5984
     0.6321   0.6368   0.6835   0.7286   0.7661   0.7684   0.9178   1.0316
     1.0518   1.0602   1.0671   1.0955   1.1717   1.1753   1.3015   1.4037
     1.5100   1.5315   1.5607   1.6259   1.7411   1.7976   1.7983   1.9563
     2.0268   2.0292   2.0399   2.1064   2.1154   2.1458   2.1591   2.1791
     2.2169   2.2476   2.2800   2.2808   2.2994   2.3327   2.3473   2.3983
     2.4061   2.4638   2.4972   2.6551

     occupation numbers 
     1.0000   1.0000   1.0000   1.0000   1.0000   1.0000   1.0000   1.0000
     1.0000   1.0000   1.0000   1.0000   1.0000   1.0000   1.0000   1.0000
     1.0000   1.0000   1.0000   1.0000   1.0000   1.0000   1.0000   1.0000
     1.0000   1.0000   1.0000   1.0000   1.0000   1.0000   1.0000   1.0000
     1.0000   1.0000   1.0000   1.0000   1.0000   1.0000   1.0000   1.0000
     1.0000   1.0000   1.0000   1.0000   1.0000   1.0000   1.0000   1.0000
     1.0000   1.0000   1.0000   1.0000   1.0000   1.0000   1.0000   1.0000
     1.0000   1.0000   1.0000   1.0000   1.0000   1.0000   1.0000   1.0000
     1.0000   1.0000   1.0000   1.0000   1.0000   1.0000   1.0000   1.0000
     1.0000   1.0000   1.0000   1.0000   1.0000   1.0000   1.0000   1.0000
     1.0000   1.0001   1.0003   1.0253

          k = 0.0000 0.1551-0.3209 ( 14842 PWs)   bands (ev):

   -69.8738 -69.8738 -69.8737 -69.8737 -68.9814 -68.9814 -68.9812 -68.9812
   -40.5202 -40.5202 -40.5173 -40.5173 -40.5020 -40.5020 -40.5020 -40.5020
   -40.4870 -40.4870 -40.4867 -40.4867 -40.1113 -40.1113 -40.1094 -40.1094
   -40.0137 -40.0137 -40.0127 -40.0127 -39.9615 -39.9615 -39.9612 -39.9612
    -6.6467  -6.6467  -6.4861  -6.4861   0.2794   0.2794   0.5796   0.5796
     0.6348   0.6348   0.6965   0.6965   0.7442   0.7442   1.0189   1.0189
     1.0534   1.0534   1.1137   1.1137   1.1796   1.1796   1.4858   1.4858
     1.4994   1.4994   1.5443   1.5443   1.7507   1.7507   1.8308   1.8308
     2.0149   2.0149   2.0782   2.0782   2.1425   2.1425   2.1668   2.1668
     2.2292   2.2292   2.2780   2.2780   2.3394   2.3394   2.4018   2.4018
     2.4358   2.4358   2.4684   2.4684

     occupation numbers 
     1.0000   1.0000   1.0000   1.0000   1.0000   1.0000   1.0000   1.0000
     1.0000   1.0000   1.0000   1.0000   1.0000   1.0000   1.0000   1.0000
     1.0000   1.0000   1.0000   1.0000   1.0000   1.0000   1.0000   1.0000
     1.0000   1.0000   1.0000   1.0000   1.0000   1.0000   1.0000   1.0000
     1.0000   1.0000   1.0000   1.0000   1.0000   1.0000   1.0000   1.0000
     1.0000   1.0000   1.0000   1.0000   1.0000   1.0000   1.0000   1.0000
     1.0000   1.0000   1.0000   1.0000   1.0000   1.0000   1.0000   1.0000
     1.0000   1.0000   1.0000   1.0000   1.0000   1.0000   1.0000   1.0000
     1.0000   1.0000   1.0000   1.0000   1.0000   1.0000   1.0000   1.0000
     1.0000   1.0000   1.0000   1.0000   1.0000   1.0000   1.0000   1.0000
     1.0000   1.0000   1.0001   1.0001

          k = 0.0000 0.3101 0.0000 ( 14801 PWs)   bands (ev):

   -69.8738 -69.8738 -69.8737 -69.8737 -68.9814 -68.9814 -68.9812 -68.9812
   -40.5202 -40.5202 -40.5173 -40.5173 -40.5020 -40.5020 -40.5020 -40.5020
   -40.4870 -40.4870 -40.4867 -40.4867 -40.1110 -40.1110 -40.1097 -40.1097
   -40.0136 -40.0136 -40.0129 -40.0129 -39.9614 -39.9614 -39.9613 -39.9613
    -6.6630  -6.6066  -6.5078  -6.4733   0.1765   0.2845   0.5749   0.5750
     0.6033   0.6369   0.7153   0.7445   0.7576   0.8414   0.9797   0.9846
     0.9989   1.0255   1.0330   1.0435   1.1784   1.1979   1.3180   1.3236
     1.4583   1.4887   1.5496   1.6288   1.6320   1.8544   1.9355   1.9443
     2.0260   2.0791   2.0838   2.0935   2.1187   2.1216   2.1824   2.2009
     2.2158   2.2406   2.2808   2.2957   2.3035   2.3362   2.3394   2.4303
     2.4474   2.4935   2.5020   2.6012

     occupation numbers 
     1.0000   1.0000   1.0000   1.0000   1.0000   1.0000   1.0000   1.0000
     1.0000   1.0000   1.0000   1.0000   1.0000   1.0000   1.0000   1.0000
     1.0000   1.0000   1.0000   1.0000   1.0000   1.0000   1.0000   1.0000
     1.0000   1.0000   1.0000   1.0000   1.0000   1.0000   1.0000   1.0000
     1.0000   1.0000   1.0000   1.0000   1.0000   1.0000   1.0000   1.0000
     1.0000   1.0000   1.0000   1.0000   1.0000   1.0000   1.0000   1.0000
     1.0000   1.0000   1.0000   1.0000   1.0000   1.0000   1.0000   1.0000
     1.0000   1.0000   1.0000   1.0000   1.0000   1.0000   1.0000   1.0000
     1.0000   1.0000   1.0000   1.0000   1.0000   1.0000   1.0000   1.0000
     1.0000   1.0000   1.0000   1.0000   1.0000   1.0000   1.0000   1.0000
     1.0000   1.0002   1.0003   1.0074

          k = 0.0000 0.3101 0.1604 ( 14816 PWs)   bands (ev):

   -69.8738 -69.8738 -69.8737 -69.8737 -68.9814 -68.9814 -68.9812 -68.9812
   -40.5202 -40.5202 -40.5173 -40.5173 -40.5020 -40.5020 -40.5020 -40.5020
   -40.4870 -40.4870 -40.4867 -40.4867 -40.1110 -40.1110 -40.1097 -40.1097
   -40.0136 -40.0136 -40.0129 -40.0129 -39.9614 -39.9614 -39.9613 -39.9613
    -6.6561  -6.6169  -6.5007  -6.4770   0.1579   0.2125   0.5734   0.5919
     0.6165   0.6421   0.7137   0.7177   0.8271   0.8471   0.8815   0.9645
     1.0206   1.0224   1.0961   1.1314   1.1787   1.1944   1.3758   1.3843
     1.4703   1.4898   1.5252   1.6580   1.6836   1.8275   1.8743   1.9221
     2.0330   2.0552   2.0909   2.1022   2.1121   2.1292   2.1535   2.1585
     2.2011   2.2541   2.2914   2.2959   2.3017   2.3342   2.3419   2.4219
     2.4251   2.4492   2.4945   2.5800

     occupation numbers 
     1.0000   1.0000   1.0000   1.0000   1.0000   1.0000   1.0000   1.0000
     1.0000   1.0000   1.0000   1.0000   1.0000   1.0000   1.0000   1.0000
     1.0000   1.0000   1.0000   1.0000   1.0000   1.0000   1.0000   1.0000
     1.0000   1.0000   1.0000   1.0000   1.0000   1.0000   1.0000   1.0000
     1.0000   1.0000   1.0000   1.0000   1.0000   1.0000   1.0000   1.0000
     1.0000   1.0000   1.0000   1.0000   1.0000   1.0000   1.0000   1.0000
     1.0000   1.0000   1.0000   1.0000   1.0000   1.0000   1.0000   1.0000
     1.0000   1.0000   1.0000   1.0000   1.0000   1.0000   1.0000   1.0000
     1.0000   1.0000   1.0000   1.0000   1.0000   1.0000   1.0000   1.0000
     1.0000   1.0000   1.0000   1.0000   1.0000   1.0000   1.0000   1.0000
     1.0000   1.0000   1.0002   1.0041

          k = 0.0000 0.3101-0.3209 ( 14818 PWs)   bands (ev):

   -69.8738 -69.8738 -69.8737 -69.8737 -68.9814 -68.9814 -68.9812 -68.9812
   -40.5202 -40.5202 -40.5173 -40.5173 -40.5020 -40.5020 -40.5020 -40.5020
   -40.4870 -40.4870 -40.4867 -40.4867 -40.1110 -40.1110 -40.1097 -40.1097
   -40.0136 -40.0136 -40.0129 -40.0129 -39.9614 -39.9614 -39.9613 -39.9613
    -6.6380  -6.6380  -6.4874  -6.4874   0.1502   0.1502   0.5840   0.5840
     0.6337   0.6337   0.7098   0.7098   0.8363   0.8363   0.9216   0.9216
     1.0251   1.0251   1.1721   1.1721   1.1737   1.1737   1.4627   1.4627
     1.4966   1.4966   1.5886   1.5886   1.7411   1.7411   1.8687   1.8687
     2.0341   2.0341   2.0899   2.0899   2.1258   2.1258   2.1272   2.1272
     2.2273   2.2273   2.2971   2.2971   2.3327   2.3327   2.3732   2.3732
     2.4183   2.4183   2.4950   2.4950

     occupation numbers 
     1.0000   1.0000   1.0000   1.0000   1.0000   1.0000   1.0000   1.0000
     1.0000   1.0000   1.0000   1.0000   1.0000   1.0000   1.0000   1.0000
     1.0000   1.0000   1.0000   1.0000   1.0000   1.0000   1.0000   1.0000
     1.0000   1.0000   1.0000   1.0000   1.0000   1.0000   1.0000   1.0000
     1.0000   1.0000   1.0000   1.0000   1.0000   1.0000   1.0000   1.0000
     1.0000   1.0000   1.0000   1.0000   1.0000   1.0000   1.0000   1.0000
     1.0000   1.0000   1.0000   1.0000   1.0000   1.0000   1.0000   1.0000
     1.0000   1.0000   1.0000   1.0000   1.0000   1.0000   1.0000   1.0000
     1.0000   1.0000   1.0000   1.0000   1.0000   1.0000   1.0000   1.0000
     1.0000   1.0000   1.0000   1.0000   1.0000   1.0000   1.0000   1.0000
     1.0000   1.0000   1.0002   1.0002

          k = 0.0000 0.4652 0.0000 ( 14783 PWs)   bands (ev):

   -69.8738 -69.8738 -69.8738 -69.8738 -68.9814 -68.9814 -68.9812 -68.9812
   -40.5202 -40.5202 -40.5173 -40.5173 -40.5020 -40.5020 -40.5020 -40.5020
   -40.4870 -40.4870 -40.4867 -40.4867 -40.1106 -40.1106 -40.1101 -40.1101
   -40.0134 -40.0133 -40.0131 -40.0131 -39.9614 -39.9614 -39.9613 -39.9613
    -6.6409  -6.6207  -6.4948  -6.4825   0.1090   0.1670   0.5661   0.5707
     0.5772   0.6122   0.7644   0.7837   0.7960   0.8757   0.9075   0.9652
     1.0192   1.0425   1.0478   1.0588   1.2132   1.2183   1.3024   1.3238
     1.4521   1.4615   1.4979   1.5034   1.7971   1.9197   1.9425   1.9524
     2.0129   2.0509   2.0779   2.1073   2.1268   2.1365   2.1431   2.2271
     2.2408   2.2542   2.2730   2.2786   2.3107   2.3209   2.3371   2.3380
     2.3928   2.4629   2.5933   2.6362

     occupation numbers 
     1.0000   1.0000   1.0000   1.0000   1.0000   1.0000   1.0000   1.0000
     1.0000   1.0000   1.0000   1.0000   1.0000   1.0000   1.0000   1.0000
     1.0000   1.0000   1.0000   1.0000   1.0000   1.0000   1.0000   1.0000
     1.0000   1.0000   1.0000   1.0000   1.0000   1.0000   1.0000   1.0000
     1.0000   1.0000   1.0000   1.0000   1.0000   1.0000   1.0000   1.0000
     1.0000   1.0000   1.0000   1.0000   1.0000   1.0000   1.0000   1.0000
     1.0000   1.0000   1.0000   1.0000   1.0000   1.0000   1.0000   1.0000
     1.0000   1.0000   1.0000   1.0000   1.0000   1.0000   1.0000   1.0000
     1.0000   1.0000   1.0000   1.0000   1.0000   1.0000   1.0000   1.0000
     1.0000   1.0000   1.0000   1.0000   1.0000   1.0000   1.0000   1.0000
     1.0000   1.0001   1.0060   1.0171

          k = 0.0000 0.4652 0.1604 ( 14790 PWs)   bands (ev):

   -69.8738 -69.8738 -69.8738 -69.8738 -68.9814 -68.9814 -68.9812 -68.9812
   -40.5202 -40.5202 -40.5173 -40.5173 -40.5020 -40.5020 -40.5020 -40.5020
   -40.4870 -40.4870 -40.4867 -40.4867 -40.1106 -40.1106 -40.1101 -40.1101
   -40.0134 -40.0133 -40.0131 -40.0131 -39.9614 -39.9614 -39.9613 -39.9613
    -6.6379  -6.6237  -6.4930  -6.4843   0.0797   0.1111   0.5733   0.5868
     0.6115   0.6192   0.7273   0.7412   0.8459   0.8815   0.9082   0.9477
     0.9780   0.9918   1.1452   1.1613   1.2161   1.2208   1.3617   1.3747
     1.4495   1.4731   1.4810   1.5531   1.8047   1.8907   1.9291   1.9330
     2.0167   2.0449   2.0690   2.0709   2.1208   2.1329   2.1530   2.1968
     2.2295   2.2563   2.2815   2.2862   2.3011   2.3121   2.3376   2.3503
     2.3979   2.4327   2.5540   2.5869

     occupation numbers 
     1.0000   1.0000   1.0000   1.0000   1.0000   1.0000   1.0000   1.0000
     1.0000   1.0000   1.0000   1.0000   1.0000   1.0000   1.0000   1.0000
     1.0000   1.0000   1.0000   1.0000   1.0000   1.0000   1.0000   1.0000
     1.0000   1.0000   1.0000   1.0000   1.0000   1.0000   1.0000   1.0000
     1.0000   1.0000   1.0000   1.0000   1.0000   1.0000   1.0000   1.0000
     1.0000   1.0000   1.0000   1.0000   1.0000   1.0000   1.0000   1.0000
     1.0000   1.0000   1.0000   1.0000   1.0000   1.0000   1.0000   1.0000
     1.0000   1.0000   1.0000   1.0000   1.0000   1.0000   1.0000   1.0000
     1.0000   1.0000   1.0000   1.0000   1.0000   1.0000   1.0000   1.0000
     1.0000   1.0000   1.0000   1.0000   1.0000   1.0000   1.0000   1.0000
     1.0000   1.0000   1.0019   1.0050

          k = 0.0000 0.4652-0.3209 ( 14824 PWs)   bands (ev):

   -69.8738 -69.8738 -69.8738 -69.8738 -68.9814 -68.9814 -68.9812 -68.9812
   -40.5202 -40.5202 -40.5173 -40.5173 -40.5020 -40.5020 -40.5020 -40.5020
   -40.4870 -40.4870 -40.4867 -40.4867 -40.1106 -40.1106 -40.1101 -40.1101
   -40.0134 -40.0134 -40.0131 -40.0131 -39.9614 -39.9614 -39.9613 -39.9613
    -6.6308  -6.6308  -6.4886  -6.4886   0.0600   0.0600   0.5789   0.5789
     0.6513   0.6513   0.6986   0.6986   0.8766   0.8766   0.9165   0.9165
     0.9821   0.9821   1.1930   1.1930   1.2232   1.2232   1.4372   1.4372
     1.4577   1.4577   1.6016   1.6016   1.7734   1.7734   1.9043   1.9043
     2.0309   2.0309   2.0726   2.0726   2.1112   2.1112   2.1849   2.1849
     2.2283   2.2283   2.2862   2.2862   2.3091   2.3091   2.3595   2.3595
     2.3977   2.3977   2.5226   2.5226

     occupation numbers 
     1.0000   1.0000   1.0000   1.0000   1.0000   1.0000   1.0000   1.0000
     1.0000   1.0000   1.0000   1.0000   1.0000   1.0000   1.0000   1.0000
     1.0000   1.0000   1.0000   1.0000   1.0000   1.0000   1.0000   1.0000
     1.0000   1.0000   1.0000   1.0000   1.0000   1.0000   1.0000   1.0000
     1.0000   1.0000   1.0000   1.0000   1.0000   1.0000   1.0000   1.0000
     1.0000   1.0000   1.0000   1.0000   1.0000   1.0000   1.0000   1.0000
     1.0000   1.0000   1.0000   1.0000   1.0000   1.0000   1.0000   1.0000
     1.0000   1.0000   1.0000   1.0000   1.0000   1.0000   1.0000   1.0000
     1.0000   1.0000   1.0000   1.0000   1.0000   1.0000   1.0000   1.0000
     1.0000   1.0000   1.0000   1.0000   1.0000   1.0000   1.0000   1.0000
     1.0000   1.0000   1.0007   1.0007

          k = 0.1667 0.0000 0.0000 ( 14819 PWs)   bands (ev):

   -69.8738 -69.8738 -69.8737 -69.8737 -68.9814 -68.9814 -68.9812 -68.9812
   -40.5200 -40.5200 -40.5175 -40.5175 -40.5020 -40.5020 -40.5020 -40.5020
   -40.4870 -40.4869 -40.4867 -40.4867 -40.1114 -40.1114 -40.1093 -40.1093
   -40.0138 -40.0138 -40.0127 -40.0127 -39.9615 -39.9615 -39.9612 -39.9612
    -6.6709  -6.5889  -6.5246  -6.4782   0.2932   0.3207   0.4597   0.5229
     0.5659   0.6399   0.7001   0.7127   0.7580   0.8118   0.8942   0.9629
     1.0541   1.0663   1.0844   1.0943   1.1465   1.1978   1.2872   1.4200
     1.4995   1.5250   1.5722   1.6109   1.6972   1.7930   1.9488   1.9923
     2.0087   2.0234   2.0534   2.0771   2.1432   2.1629   2.1923   2.2105
     2.2310   2.2430   2.2763   2.2906   2.3031   2.3388   2.3514   2.3752
     2.4239   2.4535   2.6240   2.9546

     occupation numbers 
     1.0000   1.0000   1.0000   1.0000   1.0000   1.0000   1.0000   1.0000
     1.0000   1.0000   1.0000   1.0000   1.0000   1.0000   1.0000   1.0000
     1.0000   1.0000   1.0000   1.0000   1.0000   1.0000   1.0000   1.0000
     1.0000   1.0000   1.0000   1.0000   1.0000   1.0000   1.0000   1.0000
     1.0000   1.0000   1.0000   1.0000   1.0000   1.0000   1.0000   1.0000
     1.0000   1.0000   1.0000   1.0000   1.0000   1.0000   1.0000   1.0000
     1.0000   1.0000   1.0000   1.0000   1.0000   1.0000   1.0000   1.0000
     1.0000   1.0000   1.0000   1.0000   1.0000   1.0000   1.0000   1.0000
     1.0000   1.0000   1.0000   1.0000   1.0000   1.0000   1.0000   1.0000
     1.0000   1.0000   1.0000   1.0000   1.0000   1.0000   1.0000   1.0000
     1.0000   1.0000   1.0130   0.4027

          k = 0.1667 0.0000 0.1604 ( 14838 PWs)   bands (ev):

   -69.8738 -69.8738 -69.8737 -69.8737 -68.9814 -68.9814 -68.9812 -68.9812
   -40.5200 -40.5200 -40.5175 -40.5175 -40.5020 -40.5020 -40.5020 -40.5020
   -40.4870 -40.4869 -40.4867 -40.4867 -40.1114 -40.1114 -40.1093 -40.1093
   -40.0138 -40.0138 -40.0127 -40.0127 -39.9615 -39.9615 -39.9612 -39.9612
    -6.6618  -6.6067  -6.5121  -6.4821   0.2606   0.3067   0.4715   0.5330
     0.5823   0.6487   0.6690   0.6908   0.7413   0.7805   0.8935   1.0519
     1.0542   1.0727   1.0858   1.0956   1.1319   1.2229   1.3351   1.4354
     1.4978   1.5349   1.5662   1.6304   1.7215   1.7863   1.9007   1.9754
     2.0233   2.0303   2.0471   2.0930   2.1287   2.1288   2.1899   2.2075
     2.2165   2.2255   2.2610   2.3079   2.3127   2.3372   2.3539   2.4381
     2.4509   2.4637   2.6200   2.7689

     occupation numbers 
     1.0000   1.0000   1.0000   1.0000   1.0000   1.0000   1.0000   1.0000
     1.0000   1.0000   1.0000   1.0000   1.0000   1.0000   1.0000   1.0000
     1.0000   1.0000   1.0000   1.0000   1.0000   1.0000   1.0000   1.0000
     1.0000   1.0000   1.0000   1.0000   1.0000   1.0000   1.0000   1.0000
     1.0000   1.0000   1.0000   1.0000   1.0000   1.0000   1.0000   1.0000
     1.0000   1.0000   1.0000   1.0000   1.0000   1.0000   1.0000   1.0000
     1.0000   1.0000   1.0000   1.0000   1.0000   1.0000   1.0000   1.0000
     1.0000   1.0000   1.0000   1.0000   1.0000   1.0000   1.0000   1.0000
     1.0000   1.0000   1.0000   1.0000   1.0000   1.0000   1.0000   1.0000
     1.0000   1.0000   1.0000   1.0000   1.0000   1.0000   1.0000   1.0000
     1.0000   1.0001   1.0118   1.0828

          k = 0.1667 0.0000-0.3209 ( 14828 PWs)   bands (ev):

   -69.8738 -69.8738 -69.8737 -69.8737 -68.9814 -68.9814 -68.9812 -68.9812
   -40.5200 -40.5200 -40.5175 -40.5175 -40.5020 -40.5020 -40.5020 -40.5020
   -40.4870 -40.4870 -40.4867 -40.4867 -40.1114 -40.1114 -40.1093 -40.1093
   -40.0138 -40.0138 -40.0127 -40.0127 -39.9615 -39.9615 -39.9612 -39.9612
    -6.6374  -6.6374  -6.4939  -6.4939   0.2595   0.2595   0.5153   0.5153
     0.6241   0.6241   0.6877   0.6877   0.7007   0.7007   0.9936   0.9936
     1.0639   1.0639   1.0926   1.0926   1.2094   1.2094   1.4378   1.4378
     1.5253   1.5253   1.5738   1.5738   1.7623   1.7623   1.9225   1.9225
     2.0132   2.0132   2.0831   2.0831   2.1006   2.1006   2.2138   2.2138
     2.2267   2.2267   2.2772   2.2772   2.3291   2.3291   2.4181   2.4181
     2.5127   2.5127   2.5622   2.5622

     occupation numbers 
     1.0000   1.0000   1.0000   1.0000   1.0000   1.0000   1.0000   1.0000
     1.0000   1.0000   1.0000   1.0000   1.0000   1.0000   1.0000   1.0000
     1.0000   1.0000   1.0000   1.0000   1.0000   1.0000   1.0000   1.0000
     1.0000   1.0000   1.0000   1.0000   1.0000   1.0000   1.0000   1.0000
     1.0000   1.0000   1.0000   1.0000   1.0000   1.0000   1.0000   1.0000
     1.0000   1.0000   1.0000   1.0000   1.0000   1.0000   1.0000   1.0000
     1.0000   1.0000   1.0000   1.0000   1.0000   1.0000   1.0000   1.0000
     1.0000   1.0000   1.0000   1.0000   1.0000   1.0000   1.0000   1.0000
     1.0000   1.0000   1.0000   1.0000   1.0000   1.0000   1.0000   1.0000
     1.0000   1.0000   1.0000   1.0000   1.0000   1.0000   1.0000   1.0000
     1.0005   1.0005   1.0024   1.0024

          k = 0.1667 0.1551 0.0000 ( 14812 PWs)   bands (ev):

   -69.8738 -69.8738 -69.8737 -69.8737 -68.9814 -68.9814 -68.9812 -68.9812
   -40.5200 -40.5200 -40.5175 -40.5175 -40.5020 -40.5020 -40.5020 -40.5020
   -40.4870 -40.4869 -40.4867 -40.4867 -40.1113 -40.1113 -40.1094 -40.1094
   -40.0137 -40.0137 -40.0127 -40.0127 -39.9615 -39.9615 -39.9612 -39.9612
    -6.6648  -6.5908  -6.5212  -6.4793   0.2801   0.3340   0.3562   0.5058
     0.6058   0.6585   0.7184   0.7256   0.7546   0.8275   0.8908   0.9751
     0.9934   1.0380   1.0691   1.0736   1.1625   1.2104   1.3210   1.4067
     1.4652   1.5261   1.5600   1.5662   1.6930   1.8221   1.9443   1.9951
     2.0184   2.0273   2.0581   2.0738   2.1179   2.1637   2.1708   2.2222
     2.2481   2.2509   2.2780   2.2914   2.3048   2.3436   2.3540   2.3758
     2.4515   2.5699   2.5857   2.8363

     occupation numbers 
     1.0000   1.0000   1.0000   1.0000   1.0000   1.0000   1.0000   1.0000
     1.0000   1.0000   1.0000   1.0000   1.0000   1.0000   1.0000   1.0000
     1.0000   1.0000   1.0000   1.0000   1.0000   1.0000   1.0000   1.0000
     1.0000   1.0000   1.0000   1.0000   1.0000   1.0000   1.0000   1.0000
     1.0000   1.0000   1.0000   1.0000   1.0000   1.0000   1.0000   1.0000
     1.0000   1.0000   1.0000   1.0000   1.0000   1.0000   1.0000   1.0000
     1.0000   1.0000   1.0000   1.0000   1.0000   1.0000   1.0000   1.0000
     1.0000   1.0000   1.0000   1.0000   1.0000   1.0000   1.0000   1.0000
     1.0000   1.0000   1.0000   1.0000   1.0000   1.0000   1.0000   1.0000
     1.0000   1.0000   1.0000   1.0000   1.0000   1.0000   1.0000   1.0000
     1.0000   1.0030   1.0048   0.9809

          k = 0.1667 0.1551 0.1604 ( 14831 PWs)   bands (ev):

   -69.8738 -69.8738 -69.8737 -69.8737 -68.9814 -68.9814 -68.9812 -68.9812
   -40.5200 -40.5200 -40.5175 -40.5175 -40.5020 -40.5020 -40.5020 -40.5020
   -40.4870 -40.4869 -40.4867 -40.4867 -40.1113 -40.1113 -40.1094 -40.1094
   -40.0137 -40.0137 -40.0127 -40.0127 -39.9615 -39.9615 -39.9612 -39.9612
    -6.6563  -6.6061  -6.5106  -6.4831   0.2490   0.2568   0.4347   0.5233
     0.5970   0.6372   0.6726   0.7369   0.7568   0.8215   0.9039   0.9816
     1.0499   1.0529   1.0569   1.0914   1.1444   1.2155   1.3683   1.4297
     1.4786   1.5297   1.5479   1.6054   1.6879   1.8214   1.9204   1.9773
     2.0277   2.0397   2.0624   2.0803   2.1083   2.1593   2.1852   2.2041
     2.2197   2.2378   2.2621   2.2951   2.3282   2.3342   2.3597   2.4009
     2.4423   2.5462   2.6121   2.7180

     occupation numbers 
     1.0000   1.0000   1.0000   1.0000   1.0000   1.0000   1.0000   1.0000
     1.0000   1.0000   1.0000   1.0000   1.0000   1.0000   1.0000   1.0000
     1.0000   1.0000   1.0000   1.0000   1.0000   1.0000   1.0000   1.0000
     1.0000   1.0000   1.0000   1.0000   1.0000   1.0000   1.0000   1.0000
     1.0000   1.0000   1.0000   1.0000   1.0000   1.0000   1.0000   1.0000
     1.0000   1.0000   1.0000   1.0000   1.0000   1.0000   1.0000   1.0000
     1.0000   1.0000   1.0000   1.0000   1.0000   1.0000   1.0000   1.0000
     1.0000   1.0000   1.0000   1.0000   1.0000   1.0000   1.0000   1.0000
     1.0000   1.0000   1.0000   1.0000   1.0000   1.0000   1.0000   1.0000
     1.0000   1.0000   1.0000   1.0000   1.0000   1.0000   1.0000   1.0000
     1.0000   1.0015   1.0097   1.0650

          k = 0.1667 0.1551-0.3209 ( 14836 PWs)   bands (ev):

   -69.8738 -69.8738 -69.8737 -69.8737 -68.9814 -68.9814 -68.9812 -68.9812
   -40.5200 -40.5200 -40.5175 -40.5175 -40.5020 -40.5020 -40.5020 -40.5020
   -40.4870 -40.4870 -40.4867 -40.4867 -40.1113 -40.1113 -40.1094 -40.1094
   -40.0137 -40.0137 -40.0127 -40.0127 -39.9615 -39.9615 -39.9612 -39.9612
    -6.6339  -6.6339  -6.4941  -6.4941   0.2205   0.2205   0.5151   0.5151
     0.5847   0.5847   0.7035   0.7035   0.7645   0.7645   1.0000   1.0000
     1.0259   1.0259   1.0800   1.0800   1.1964   1.1964   1.4567   1.4567
     1.5156   1.5156   1.5641   1.5641   1.7412   1.7412   1.9495   1.9495
     2.0189   2.0189   2.0744   2.0744   2.1378   2.1378   2.2109   2.2109
     2.2194   2.2194   2.2734   2.2734   2.3311   2.3311   2.4149   2.4149
     2.4494   2.4494   2.6057   2.6057

     occupation numbers 
     1.0000   1.0000   1.0000   1.0000   1.0000   1.0000   1.0000   1.0000
     1.0000   1.0000   1.0000   1.0000   1.0000   1.0000   1.0000   1.0000
     1.0000   1.0000   1.0000   1.0000   1.0000   1.0000   1.0000   1.0000
     1.0000   1.0000   1.0000   1.0000   1.0000   1.0000   1.0000   1.0000
     1.0000   1.0000   1.0000   1.0000   1.0000   1.0000   1.0000   1.0000
     1.0000   1.0000   1.0000   1.0000   1.0000   1.0000   1.0000   1.0000
     1.0000   1.0000   1.0000   1.0000   1.0000   1.0000   1.0000   1.0000
     1.0000   1.0000   1.0000   1.0000   1.0000   1.0000   1.0000   1.0000
     1.0000   1.0000   1.0000   1.0000   1.0000   1.0000   1.0000   1.0000
[...]

   -68.6614 -68.6614 -68.6613 -68.6613 -64.5869 -64.5869 -64.5869 -64.5869
   -38.4862 -38.4862 -38.4861 -38.4861 -38.3595 -38.3595 -38.3590 -38.3590
   -38.3508 -38.3508 -38.3507 -38.3507 -36.1894 -36.1894 -36.1894 -36.1894
   -36.1662 -36.1662 -36.1662 -36.1662 -36.1250 -36.1250 -36.1250 -36.1250
    -6.9565  -6.9565  -6.9505  -6.9505   0.5746   0.5746   0.5956   0.5956
     1.1804   1.1804   1.2318   1.2318   1.6175   1.6175   1.6359   1.6359
     2.6224   2.6224   2.6718   2.6718   2.8926   2.8926   2.9180   2.9180
     3.1624   3.1624   3.1915   3.1915   3.3303   3.3303   3.4457   3.4457
     3.5766   3.5766   3.6726   3.6726   4.6852   4.6852   4.9224   4.9224
     5.1356   5.1356   5.2027   5.2027   5.6895   5.6895   5.7406   5.7406
     5.8550   5.8550   5.9434   5.9434

     occupation numbers 
     1.0000   1.0000   1.0000   1.0000   1.0000   1.0000   1.0000   1.0000
     1.0000   1.0000   1.0000   1.0000   1.0000   1.0000   1.0000   1.0000
     1.0000   1.0000   1.0000   1.0000   1.0000   1.0000   1.0000   1.0000
     1.0000   1.0000   1.0000   1.0000   1.0000   1.0000   1.0000   1.0000
     1.0000   1.0000   1.0000   1.0000   1.0000   1.0000   1.0000   1.0000
     1.0000   1.0000   1.0000   1.0000   1.0000   1.0000   1.0000   1.0000
     1.0125   1.0125   1.0343   1.0343   0.7382   0.7382   0.5996   0.5996
     0.0035   0.0035   0.0013   0.0013   0.0000   0.0000   0.0000   0.0000
     0.0000   0.0000   0.0000   0.0000   0.0000   0.0000   0.0000   0.0000
     0.0000   0.0000   0.0000   0.0000   0.0000   0.0000   0.0000   0.0000
     0.0000   0.0000   0.0000   0.0000

          k =-0.5000 0.4652 0.1604 ( 14786 PWs)   bands (ev):

   -68.6614 -68.6614 -68.6613 -68.6613 -64.5869 -64.5869 -64.5869 -64.5869
   -38.4862 -38.4862 -38.4861 -38.4861 -38.3595 -38.3595 -38.3590 -38.3590
   -38.3508 -38.3508 -38.3507 -38.3507 -36.1894 -36.1894 -36.1894 -36.1894
   -36.1662 -36.1662 -36.1662 -36.1662 -36.1250 -36.1250 -36.1250 -36.1250
    -6.9563  -6.9563  -6.9507  -6.9507   0.5547   0.5547   0.5719   0.5719
     1.2284   1.2284   1.2709   1.2709   1.6055   1.6055   1.6298   1.6298
     2.6350   2.6350   2.6787   2.6787   2.8853   2.8853   2.9011   2.9011
     3.1858   3.1858   3.1974   3.1974   3.3261   3.3261   3.4002   3.4002
     3.6012   3.6012   3.6759   3.6759   4.6116   4.6116   4.8159   4.8159
     5.0960   5.0960   5.2013   5.2013   5.7197   5.7197   5.7415   5.7415
     5.8826   5.8826   5.9345   5.9345

     occupation numbers 
     1.0000   1.0000   1.0000   1.0000   1.0000   1.0000   1.0000   1.0000
     1.0000   1.0000   1.0000   1.0000   1.0000   1.0000   1.0000   1.0000
     1.0000   1.0000   1.0000   1.0000   1.0000   1.0000   1.0000   1.0000
     1.0000   1.0000   1.0000   1.0000   1.0000   1.0000   1.0000   1.0000
     1.0000   1.0000   1.0000   1.0000   1.0000   1.0000   1.0000   1.0000
     1.0000   1.0000   1.0000   1.0000   1.0000   1.0000   1.0000   1.0000
     1.0166   1.0166   1.0385   1.0385   0.7761   0.7761   0.6927   0.6927
     0.0016   0.0016   0.0010   0.0010   0.0000   0.0000   0.0000   0.0000
     0.0000   0.0000   0.0000   0.0000   0.0000   0.0000   0.0000   0.0000
     0.0000   0.0000   0.0000   0.0000   0.0000   0.0000   0.0000   0.0000
     0.0000   0.0000   0.0000   0.0000

          k =-0.5000 0.4652-0.3209 ( 14800 PWs)   bands (ev):

   -68.6614 -68.6614 -68.6613 -68.6613 -64.5869 -64.5869 -64.5869 -64.5869
   -38.4862 -38.4862 -38.4861 -38.4861 -38.3595 -38.3595 -38.3590 -38.3590
   -38.3508 -38.3508 -38.3507 -38.3507 -36.1894 -36.1894 -36.1894 -36.1894
   -36.1662 -36.1662 -36.1662 -36.1662 -36.1250 -36.1250 -36.1250 -36.1250
    -6.9560  -6.9560  -6.9510  -6.9510   0.5374   0.5374   0.5496   0.5496
     1.2780   1.2780   1.3091   1.3091   1.5920   1.5920   1.6209   1.6209
     2.6511   2.6511   2.6853   2.6853   2.8764   2.8764   2.8831   2.8831
     3.1902   3.1902   3.2381   3.2381   3.3264   3.3264   3.3354   3.3354
     3.6357   3.6357   3.6695   3.6695   4.5446   4.5446   4.6999   4.6999
     5.0963   5.0963   5.1994   5.1994   5.7384   5.7384   5.7389   5.7389
     5.8953   5.8953   5.9217   5.9217

     occupation numbers 
     1.0000   1.0000   1.0000   1.0000   1.0000   1.0000   1.0000   1.0000
     1.0000   1.0000   1.0000   1.0000   1.0000   1.0000   1.0000   1.0000
     1.0000   1.0000   1.0000   1.0000   1.0000   1.0000   1.0000   1.0000
     1.0000   1.0000   1.0000   1.0000   1.0000   1.0000   1.0000   1.0000
     1.0000   1.0000   1.0000   1.0000   1.0000   1.0000   1.0000   1.0000
     1.0000   1.0000   1.0000   1.0000   1.0000   1.0000   1.0000   1.0000
     1.0233   1.0233   1.0428   1.0428   0.8198   0.8198   0.7868   0.7868
     0.0013   0.0013   0.0002   0.0002   0.0000   0.0000   0.0000   0.0000
     0.0000   0.0000   0.0000   0.0000   0.0000   0.0000   0.0000   0.0000
     0.0000   0.0000   0.0000   0.0000   0.0000   0.0000   0.0000   0.0000
     0.0000   0.0000   0.0000   0.0000

     the Fermi energy is     2.9551 ev

!    total energy              =   -1525.37450421 Ry
     estimated scf accuracy    <          5.5E-10 Ry
     smearing contrib. (-TS)   =       0.00252887 Ry
     internal energy E=F+TS    =   -1525.37703308 Ry

     The total energy is F=E-TS. E is the sum of the following terms:
     one-electron contribution =   -1112.70795035 Ry
     hartree contribution      =     562.34078737 Ry
     xc contribution           =    -201.86084803 Ry
     ewald contribution        =    -773.14902206 Ry

     total magnetization       =    27.96 Bohr mag/cell
     absolute magnetization    =    32.01 Bohr mag/cell

     convergence has been achieved in  28 iterations

     negative rho (up, down):  0.000E+00 2.075E-02

     Forces acting on atoms (cartesian axes, Ry/au):

     atom    1 type  2   force =     0.00481622    0.00000000   -0.00754420
     atom    2 type  2   force =     0.00481622    0.00000000    0.00754420
     atom    3 type  2   force =    -0.00481622    0.00000000    0.00754420
     atom    4 type  2   force =    -0.00481622    0.00000000   -0.00754420
     atom    5 type  1   force =    -0.06160788    0.00000000    0.01616429
     atom    6 type  1   force =    -0.06160788    0.00000000   -0.01616429
     atom    7 type  1   force =     0.06160788    0.00000000   -0.01616429
     atom    8 type  1   force =     0.06160788   -0.00000000    0.01616429
     atom    9 type  3   force =     0.07044914    0.00000000    0.01996537
     atom   10 type  3   force =     0.07044914    0.00000000   -0.01996537
     atom   11 type  3   force =    -0.07044914    0.00000000   -0.01996537
     atom   12 type  3   force =    -0.07044914    0.00000000    0.01996537
     The non-local contrib.  to forces
     atom    1 type  2   force =    -0.03438975    0.00000000    0.03606294
     atom    2 type  2   force =    -0.03438975    0.00000000   -0.03606294
     atom    3 type  2   force =     0.03438975    0.00000000   -0.03606294
     atom    4 type  2   force =     0.03438975   -0.00000000    0.03606294
     atom    5 type  1   force =    -0.12431484    0.00000000    0.01997838
     atom    6 type  1   force =    -0.12431484   -0.00000000   -0.01997838
     atom    7 type  1   force =     0.12431484    0.00000000   -0.01997838
     atom    8 type  1   force =     0.12431484   -0.00000000    0.01997838
     atom    9 type  3   force =    -0.08007373    0.00000000   -0.04370065
     atom   10 type  3   force =    -0.08007373   -0.00000000    0.04370065
     atom   11 type  3   force =     0.08007373    0.00000000    0.04370065
     atom   12 type  3   force =     0.08007373    0.00000000   -0.04370065
     The ionic contribution  to forces
     atom    1 type  2   force =    -0.48648170   -0.00000000   -0.84450601
     atom    2 type  2   force =    -0.48648170   -0.00000000    0.84450601
     atom    3 type  2   force =     0.48648170    0.00000000    0.84450601
     atom    4 type  2   force =     0.48648170    0.00000000   -0.84450601
     atom    5 type  1   force =     2.55364457   -0.00000000   -0.76582904
     atom    6 type  1   force =     2.55364457   -0.00000000    0.76582904
     atom    7 type  1   force =    -2.55364457    0.00000000    0.76582904
     atom    8 type  1   force =    -2.55364457   -0.00000000   -0.76582904
     atom    9 type  3   force =    -2.78814656   -0.00000000    1.70265148
     atom   10 type  3   force =    -2.78814656   -0.00000000   -1.70265148
     atom   11 type  3   force =     2.78814656    0.00000000   -1.70265148
     atom   12 type  3   force =     2.78814656    0.00000000    1.70265148
     The local contribution  to forces
     atom    1 type  2   force =     0.52576028    0.00000000    0.80079639
     atom    2 type  2   force =     0.52576028    0.00000000   -0.80079639
     atom    3 type  2   force =    -0.52576028    0.00000000   -0.80079639
     atom    4 type  2   force =    -0.52576028    0.00000000    0.80079639
     atom    5 type  1   force =    -2.49895269    0.00000000    0.76198691
     atom    6 type  1   force =    -2.49895269    0.00000000   -0.76198691
     atom    7 type  1   force =     2.49895269    0.00000000   -0.76198691
     atom    8 type  1   force =     2.49895269    0.00000000    0.76198691
     atom    9 type  3   force =     2.93867255    0.00000000   -1.63898094
     atom   10 type  3   force =     2.93867255    0.00000000    1.63898094
     atom   11 type  3   force =    -2.93867255    0.00000000    1.63898094
     atom   12 type  3   force =    -2.93867255    0.00000000   -1.63898094
     The core correction contribution to forces
     atom    1 type  2   force =    -0.00007403    0.00000000    0.00010421
     atom    2 type  2   force =    -0.00007403    0.00000000   -0.00010421
     atom    3 type  2   force =     0.00007403   -0.00000000   -0.00010421
     atom    4 type  2   force =     0.00007403   -0.00000000    0.00010421
     atom    5 type  1   force =     0.00801371    0.00000000    0.00002748
     atom    6 type  1   force =     0.00801371    0.00000000   -0.00002748
     atom    7 type  1   force =    -0.00801371    0.00000000   -0.00002748
     atom    8 type  1   force =    -0.00801371    0.00000000    0.00002748
     atom    9 type  3   force =     0.00000000    0.00000000    0.00000000
     atom   10 type  3   force =     0.00000000    0.00000000    0.00000000
     atom   11 type  3   force =     0.00000000    0.00000000    0.00000000
     atom   12 type  3   force =     0.00000000    0.00000000    0.00000000
     The Hubbard contrib.    to forces
     atom    1 type  2   force =     0.00000000    0.00000000    0.00000000
     atom    2 type  2   force =     0.00000000    0.00000000    0.00000000
     atom    3 type  2   force =     0.00000000    0.00000000    0.00000000
     atom    4 type  2   force =     0.00000000    0.00000000    0.00000000
     atom    5 type  1   force =     0.00000000    0.00000000    0.00000000
     atom    6 type  1   force =     0.00000000    0.00000000    0.00000000
     atom    7 type  1   force =     0.00000000    0.00000000    0.00000000
     atom    8 type  1   force =     0.00000000    0.00000000    0.00000000
     atom    9 type  3   force =     0.00000000    0.00000000    0.00000000
     atom   10 type  3   force =     0.00000000    0.00000000    0.00000000
     atom   11 type  3   force =     0.00000000    0.00000000    0.00000000
     atom   12 type  3   force =     0.00000000    0.00000000    0.00000000
     The SCF correction term to forces
     atom    1 type  2   force =     0.00000142   -0.00000000   -0.00000173
     atom    2 type  2   force =     0.00000142    0.00000000    0.00000173
     atom    3 type  2   force =    -0.00000142   -0.00000000    0.00000173
     atom    4 type  2   force =    -0.00000142    0.00000000   -0.00000173
     atom    5 type  1   force =     0.00000137   -0.00000000    0.00000057
     atom    6 type  1   force =     0.00000137   -0.00000000   -0.00000057
     atom    7 type  1   force =    -0.00000137    0.00000000   -0.00000057
     atom    8 type  1   force =    -0.00000137    0.00000000    0.00000057
     atom    9 type  3   force =    -0.00000313   -0.00000000   -0.00000452
     atom   10 type  3   force =    -0.00000313    0.00000000    0.00000452
     atom   11 type  3   force =     0.00000313   -0.00000000    0.00000452
     atom   12 type  3   force =     0.00000313   -0.00000000   -0.00000452

     Total force =     0.194922     Total SCF correction =     0.000012


     Computing stress (Cartesian axis) and pressure


     negative rho (up, down):  0.000E+00 2.075E-02
          total   stress  (Ry/bohr**3)                   (kbar)     P=     -112.17
  -0.00091723   0.00000000   0.00000000         -134.93        0.00        0.00
   0.00000000  -0.00065090   0.00000000            0.00      -95.75        0.00
   0.00000000   0.00000000  -0.00071931            0.00        0.00     -105.81

     kinetic stress (kbar)  11654.85      0.00      0.00
                                0.00  11699.18      0.00
                                0.00      0.00  11718.56

     local   stress (kbar) -10897.42      0.00     -0.00
                                0.00  -7882.51      0.00
                               -0.00      0.00  -8603.31

     nonloc. stress (kbar)   2769.22      0.00      0.00
                                0.00   2773.76      0.00
                                0.00      0.00   2771.98

     hartree stress (kbar)   8562.40     -0.00      0.00
                               -0.00   7510.55     -0.00
                                0.00     -0.00   7786.22

     exc-cor stress (kbar)  -1007.45     -0.00     -0.00
                               -0.00  -1010.31     -0.00
                               -0.00     -0.00  -1009.47

     corecor stress (kbar)  -1458.59      0.00      0.00
                                0.00  -1455.32      0.00
                                0.00      0.00  -1455.43

     ewald   stress (kbar)  -9757.95      0.00     -0.00
                                0.00 -11731.10     -0.00
                               -0.00     -0.00 -11314.36

     hubbard stress (kbar)      0.00      0.00      0.00
                                0.00      0.00      0.00
                                0.00      0.00      0.00

     DFT-D   stress (kbar)      0.00      0.00      0.00
                                0.00      0.00      0.00
                                0.00      0.00      0.00

     XDM     stress (kbar)      0.00      0.00      0.00
                                0.00      0.00      0.00
                                0.00      0.00      0.00

     dft-nl  stress (kbar)      0.00      0.00      0.00
                                0.00      0.00      0.00
                                0.00      0.00      0.00

     TS-vdW  stress (kbar)      0.00      0.00      0.00
                                0.00      0.00      0.00
                                0.00      0.00      0.00

     MDB     stress (kbar)      0.00      0.00      0.00
                                0.00      0.00      0.00
                                0.00      0.00      0.00

     3D-RISM stress (kbar)      0.00      0.00      0.00
                                0.00      0.00      0.00
                                0.00      0.00      0.00


     Writing all to output data dir ./out/aiida.save/
 
     init_run     :     12.47s CPU      4.35s WALL (       1 calls)
     electrons    :    471.74s CPU    412.28s WALL (       1 calls)
     forces       :      4.95s CPU      4.04s WALL (       1 calls)
     stress       :     15.30s CPU     12.36s WALL (       1 calls)

     Called by init_run:
     wfcinit      :      0.90s CPU      0.90s WALL (       1 calls)
                                        0.90s GPU  (       1 calls)
     potinit      :      0.49s CPU      0.16s WALL (       1 calls)
     hinit0       :      8.56s CPU      2.49s WALL (       1 calls)

     Called by electrons:
     c_bands      :    363.59s CPU    356.77s WALL (      29 calls)
     sum_band     :     47.13s CPU     49.67s WALL (      29 calls)
     v_of_rho     :     15.28s CPU      1.47s WALL (      29 calls)
     v_h          :      2.50s CPU      0.22s WALL (      29 calls)
     v_xc         :     13.28s CPU      1.34s WALL (      31 calls)
     newd         :     21.94s CPU      2.29s WALL (      29 calls)
                                        2.29s GPU  (      29 calls)
     mix_rho      :     18.91s CPU      1.88s WALL (      29 calls)

     Called by c_bands:
     init_us_2    :     10.04s CPU     12.16s WALL (    5760 calls)
     init_us_2:gp :      9.92s CPU     12.05s WALL (    5760 calls)
     cegterg      :    316.31s CPU    309.56s WALL (    2784 calls)

     Called by sum_band:
     sum_band:wei :      0.27s CPU      0.27s WALL (      29 calls)
                                        0.27s GPU  (      29 calls)
     sum_band:loo :     43.69s CPU     46.18s WALL (      29 calls)
                                       46.18s GPU  (      29 calls)
     sum_band:buf :     16.73s CPU     17.10s WALL (    2784 calls)
                                       17.08s GPU  (    2784 calls)
     sum_band:ini :      4.45s CPU      5.31s WALL (    2784 calls)
                                        5.30s GPU  (    2784 calls)
     sum_band:cal :      0.11s CPU      1.78s WALL (    2784 calls)
                                        1.62s GPU  (    2784 calls)
     sum_band:bec :      0.69s CPU      0.74s WALL (    2784 calls)
                                        0.73s GPU  (    2784 calls)
     addusdens    :      1.69s CPU      1.74s WALL (      29 calls)
                                        1.74s GPU  (      29 calls)
     addusd:skk   :      0.01s CPU      0.01s WALL (      58 calls)
                                        0.01s GPU  (      58 calls)

     Called by *egterg:
     cdiaghg      :    112.68s CPU    119.94s WALL (   16500 calls)
                                      119.83s GPU  (   16500 calls)
     cegterg:over :      9.26s CPU      8.86s WALL (   13908 calls)
     cegterg:upda :     13.16s CPU     12.44s WALL (   13908 calls)
     cegterg:last :      9.11s CPU      8.58s WALL (    7307 calls)
     h_psi        :    153.43s CPU    142.56s WALL (   16692 calls)
                                      142.26s GPU  (   16692 calls)
     s_psi        :      3.08s CPU      8.64s WALL (   16692 calls)
                                        7.90s GPU  (   16692 calls)
     g_psi        :      0.11s CPU      0.97s WALL (   13908 calls)
                                        0.88s GPU  (   13908 calls)

     Called by h_psi:
     h_psi:calbec :      0.60s CPU      6.72s WALL (   16692 calls)
                                        6.61s GPU  (   16692 calls)
     vloc_psi     :    133.38s CPU    123.84s WALL (   16692 calls)
                                      123.74s GPU  (   16692 calls)
     add_vuspsi   :      5.08s CPU     10.13s WALL (   16692 calls)
                                       10.02s GPU  (   16692 calls)

     General routines
     calbec       :      0.54s CPU      0.53s WALL (   19956 calls)
     fft          :      2.10s CPU      0.34s WALL (     765 calls)
                                        0.29s GPU  (     707 calls)
     ffts         :      0.07s CPU      0.02s WALL (     116 calls)
                                        0.01s GPU  (      58 calls)
     fftw         :      2.54s CPU     97.96s WALL (  125204 calls)
                                       96.90s GPU  (  125204 calls)
     interpolate  :      2.47s CPU      0.22s WALL (      58 calls)
     davcio       :      0.07s CPU      1.06s WALL (      96 calls)
 
     Parallel routines
 
     PWSCF        :   8m54.09s CPU   7m16.59s WALL

 
   This run was terminated on:  22:30:28  23Oct2023            

=------------------------------------------------------------------------------=
   JOB DONE.
=------------------------------------------------------------------------------=
