
     Program PWSCF v.7.2 starts on 22Oct2023 at 17: 9:28 

     This program is part of the open-source Quantum ESPRESSO suite
     for quantum simulation of materials; please cite
         "P. Giannozzi et al., J. Phys.:Condens. Matter 21 395502 (2009);
         "P. Giannozzi et al., J. Phys.:Condens. Matter 29 465901 (2017);
         "P. Giannozzi et al., J. Chem. Phys. 152 154105 (2020);
          URL http://www.quantum-espresso.org", 
     in publications or presentations arising from this work. More details at
     http://www.quantum-espresso.org/quote

     Parallel version (MPI & OpenMP), running on      12 processor cores
     Number of MPI processes:                 1
     Threads/MPI process:                    12

     MPI processes distributed on     1 nodes
     59562 MiB available memory on the printing compute node when the environment starts
 
     Reading input from aiida.in

     Current dimensions of program PWSCF are:
     Max number of different atomic species (ntypx) = 10
     Max number of k-points (npk) =  40000
     Max angular momentum in pseudopotentials (lmaxx) =  4
     file Mg.pbesol-n-kjpaw_psl.0.3.0.UPF: wavefunction(s)  3S renormalized
     Message from routine setup:
     using ibrav=0 with symmetry is DISCOURAGED, use correct ibrav instead
 
     Subspace diagonalization in iterative solution of the eigenvalue problem:
     a serial algorithm will be used

 
     G-vector sticks info
     --------------------
     sticks:   dense  smooth     PW     G-vecs:    dense   smooth      PW
     Sum        6391    3205    877               337669   119485   17261
 
     Using Slab Decomposition
 


     bravais-lattice index     =            0
     lattice parameter (alat)  =      13.9061  a.u.
     unit-cell volume          =    1901.5358 (a.u.)^3
     number of atoms/cell      =            9
     number of atomic types    =            3
     number of electrons       =        46.00
     number of Kohn-Sham states=           28
     kinetic-energy cutoff     =      60.0000  Ry
     charge density cutoff     =     480.0000  Ry
     scf convergence threshold =      1.8E-09
     mixing beta               =       0.4000
     number of iterations used =            8  plain     mixing
     Exchange-correlation= PBESOL
                           (   1   4  10   8   0   0   0)

     GPU acceleration is ACTIVE.


     GPU used by master process:

        Device Number: 0
        Device name: Tesla P100-PCIE-16GB
        Compute capability : 60
        Ratio of single to double precision performance  : 2
        Memory Clock Rate (KHz): 715000
        Memory Bus Width (bits): 4096
        Peak Memory Bandwidth (GB/s): 732.16

     celldm(1)=  13.906137  celldm(2)=   0.000000  celldm(3)=   0.000000
     celldm(4)=   0.000000  celldm(5)=   0.000000  celldm(6)=   0.000000

     crystal axes: (cart. coord. in units of alat)
               a(1) = (   0.000000   0.707107   0.707107 )  
               a(2) = (   0.707107   0.000000   0.707107 )  
               a(3) = (   0.707107   0.707107   0.000000 )  

     reciprocal axes: (cart. coord. in units 2 pi/alat)
               b(1) = ( -0.707107  0.707107  0.707107 )  
               b(2) = (  0.707107 -0.707107  0.707107 )  
               b(3) = (  0.707107  0.707107 -0.707107 )  


     PseudoPot. # 1 for Br read from file:
     ./pseudo/br_pbesol_v1.4.uspp.F.UPF
     MD5 check sum: 7bf6084e715f6bfd1944787c04c43e72
     Pseudo is Ultrasoft + core correction, Zval =  7.0
     Generated by new atomic code, or converted to UPF format
     Using radial grid of  879 points,  6 beta functions with: 
                l(1) =   0
                l(2) =   0
                l(3) =   1
                l(4) =   1
                l(5) =   2
                l(6) =   2
     Q(r) pseudized with  8 coefficients,  rinner =    1.200   1.200   1.200
                                                       1.200   1.200

     PseudoPot. # 2 for Mg read from file:
     ./pseudo/Mg.pbesol-n-kjpaw_psl.0.3.0.UPF
     MD5 check sum: a6c8d2ff726a5f7005dea00130d82930
     Pseudo is Projector augmented-wave + core cor, Zval =  2.0
     Generated using "atomic" code by A. Dal Corso  v.6.1 svn rev. 13369
     Shape of augmentation charge: PSQ
     Using radial grid of 1129 points,  4 beta functions with: 
                l(1) =   0
                l(2) =   0
                l(3) =   1
                l(4) =   1
     Q(r) pseudized with 0 coefficients 


     PseudoPot. # 3 for N  read from file:
     ./pseudo/N.pbesol-theos.UPF
     MD5 check sum: 1b64827339d390a5a22afef3ff345c9d
     Pseudo is Ultrasoft + core correction, Zval =  5.0
     Generated using "atomic" code by A. Dal Corso  v.5.1
     Using radial grid of 1085 points,  4 beta functions with: 
                l(1) =   0
                l(2) =   0
                l(3) =   1
                l(4) =   1
     Q(r) pseudized with 0 coefficients 


     atomic species   valence    mass     pseudopotential
        Br             7.00    79.90400     Br( 1.00)
        Mg             2.00    24.30500     Mg( 1.00)
        N              5.00    14.00670     N ( 1.00)

     Starting magnetic structure 
     atomic species   magnetization
        Br           0.100
        Mg           0.100
        N            0.100

     48 Sym. Ops., with inversion, found


                                    s                        frac. trans.

      isym =  1     identity                                     

 cryst.   s( 1) = (     1          0          0      )
                  (     0          1          0      )
                  (     0          0          1      )

 cart.    s( 1) = (  1.0000000 -0.0000000  0.0000000 )
                  ( -0.0000000  1.0000000  0.0000000 )
                  ( -0.0000000  0.0000000  1.0000000 )


      isym =  2     180 deg rotation - cart. axis [0,0,1]        

 cryst.   s( 2) = (     0          1         -1      )
                  (     1          0         -1      )
                  (     0          0         -1      )

 cart.    s( 2) = ( -1.0000000  0.0000000  0.0000000 )
                  (  0.0000000 -1.0000000  0.0000000 )
                  (  0.0000000 -0.0000000  1.0000000 )


      isym =  3     180 deg rotation - cart. axis [0,1,0]        

 cryst.   s( 3) = (     0         -1          1      )
                  (     0         -1          0      )
                  (     1         -1          0      )

 cart.    s( 3) = ( -1.0000000 -0.0000000 -0.0000000 )
                  (  0.0000000  1.0000000 -0.0000000 )
                  (  0.0000000  0.0000000 -1.0000000 )


      isym =  4     180 deg rotation - cart. axis [1,0,0]        

 cryst.   s( 4) = (    -1          0          0      )
                  (    -1          0          1      )
                  (    -1          1          0      )

 cart.    s( 4) = (  1.0000000  0.0000000 -0.0000000 )
                  ( -0.0000000 -1.0000000 -0.0000000 )
                  ( -0.0000000 -0.0000000 -1.0000000 )


      isym =  5     180 deg rotation - cart. axis [1,1,0]        

 cryst.   s( 5) = (    -1          0          1      )
                  (     0         -1          1      )
                  (     0          0          1      )

 cart.    s( 5) = ( -0.0000000  1.0000000 -0.0000000 )
                  (  1.0000000 -0.0000000 -0.0000000 )
                  (  0.0000000 -0.0000000 -1.0000000 )


      isym =  6     180 deg rotation - cart. axis [1,-1,0]       

 cryst.   s( 6) = (     0         -1          0      )
                  (    -1          0          0      )
                  (     0          0         -1      )

 cart.    s( 6) = (  0.0000000 -1.0000000 -0.0000000 )
                  ( -1.0000000  0.0000000 -0.0000000 )
                  ( -0.0000000  0.0000000 -1.0000000 )


      isym =  7      90 deg rotation - cart. axis [0,0,-1]       

 cryst.   s( 7) = (     0          1          0      )
                  (     0          1         -1      )
                  (    -1          1          0      )

 cart.    s( 7) = (  0.0000000  1.0000000  0.0000000 )
                  ( -1.0000000 -0.0000000  0.0000000 )
                  ( -0.0000000 -0.0000000  1.0000000 )


      isym =  8      90 deg rotation - cart. axis [0,0,1]        

 cryst.   s( 8) = (     1          0         -1      )
                  (     1          0          0      )
                  (     1         -1          0      )

 cart.    s( 8) = ( -0.0000000 -1.0000000  0.0000000 )
                  (  1.0000000  0.0000000  0.0000000 )
                  (  0.0000000  0.0000000  1.0000000 )


      isym =  9     180 deg rotation - cart. axis [1,0,1]        

 cryst.   s( 9) = (    -1          1          0      )
                  (     0          1          0      )
                  (     0          1         -1      )

 cart.    s( 9) = (  0.0000000  0.0000000  1.0000000 )
                  (  0.0000000 -1.0000000 -0.0000000 )
                  (  1.0000000 -0.0000000 -0.0000000 )


      isym = 10     180 deg rotation - cart. axis [-1,0,1]       

 cryst.   s(10) = (     0          0         -1      )
                  (     0         -1          0      )
                  (    -1          0          0      )

 cart.    s(10) = ( -0.0000000  0.0000000 -1.0000000 )
                  ( -0.0000000 -1.0000000  0.0000000 )
                  ( -1.0000000 -0.0000000  0.0000000 )


      isym = 11      90 deg rotation - cart. axis [0,1,0]        

 cryst.   s(11) = (     0          0          1      )
                  (    -1          0          1      )
                  (     0         -1          1      )

 cart.    s(11) = ( -0.0000000 -0.0000000  1.0000000 )
                  ( -0.0000000  1.0000000 -0.0000000 )
                  ( -1.0000000  0.0000000 -0.0000000 )


      isym = 12      90 deg rotation - cart. axis [0,-1,0]       

 cryst.   s(12) = (     1         -1          0      )
                  (     1          0         -1      )
                  (     1          0          0      )

 cart.    s(12) = (  0.0000000 -0.0000000 -1.0000000 )
                  (  0.0000000  1.0000000  0.0000000 )
                  (  1.0000000  0.0000000  0.0000000 )


      isym = 13     180 deg rotation - cart. axis [0,1,1]        

 cryst.   s(13) = (     1          0          0      )
                  (     1         -1          0      )
                  (     1          0         -1      )

 cart.    s(13) = ( -1.0000000  0.0000000 -0.0000000 )
                  (  0.0000000  0.0000000  1.0000000 )
                  (  0.0000000  1.0000000  0.0000000 )


      isym = 14     180 deg rotation - cart. axis [0,1,-1]       

 cryst.   s(14) = (    -1          0          0      )
                  (     0          0         -1      )
                  (     0         -1          0      )

 cart.    s(14) = ( -1.0000000 -0.0000000  0.0000000 )
                  (  0.0000000 -0.0000000 -1.0000000 )
                  (  0.0000000 -1.0000000 -0.0000000 )


      isym = 15      90 deg rotation - cart. axis [-1,0,0]       

 cryst.   s(15) = (     0         -1          1      )
                  (     0          0          1      )
                  (    -1          0          1      )

 cart.    s(15) = (  1.0000000 -0.0000000 -0.0000000 )
                  ( -0.0000000 -0.0000000  1.0000000 )
                  ( -0.0000000 -1.0000000  0.0000000 )


      isym = 16      90 deg rotation - cart. axis [1,0,0]        

 cryst.   s(16) = (     0          1         -1      )
                  (    -1          1          0      )
                  (     0          1          0      )

 cart.    s(16) = (  1.0000000  0.0000000  0.0000000 )
                  ( -0.0000000  0.0000000 -1.0000000 )
                  ( -0.0000000  1.0000000 -0.0000000 )


      isym = 17     120 deg rotation - cart. axis [-1,-1,-1]     

 cryst.   s(17) = (     0          0          1      )
                  (     1          0          0      )
                  (     0          1          0      )

 cart.    s(17) = (  0.0000000  1.0000000 -0.0000000 )
                  (  0.0000000 -0.0000000  1.0000000 )
                  (  1.0000000 -0.0000000  0.0000000 )


      isym = 18     120 deg rotation - cart. axis [-1,1,1]       

 cryst.   s(18) = (     1         -1          0      )
                  (     0         -1          1      )
                  (     0         -1          0      )

 cart.    s(18) = ( -0.0000000 -1.0000000 -0.0000000 )
                  ( -0.0000000  0.0000000  1.0000000 )
                  ( -1.0000000  0.0000000  0.0000000 )


      isym = 19     120 deg rotation - cart. axis [1,1,-1]       

 cryst.   s(19) = (    -1          1          0      )
                  (    -1          0          0      )
                  (    -1          0          1      )

 cart.    s(19) = ( -0.0000000  1.0000000  0.0000000 )
                  ( -0.0000000 -0.0000000 -1.0000000 )
                  ( -1.0000000 -0.0000000 -0.0000000 )


      isym = 20     120 deg rotation - cart. axis [1,-1,1]       

 cryst.   s(20) = (     0          0         -1      )
                  (     0          1         -1      )
                  (     1          0         -1      )

 cart.    s(20) = (  0.0000000 -1.0000000  0.0000000 )
                  (  0.0000000  0.0000000 -1.0000000 )
                  (  1.0000000  0.0000000 -0.0000000 )


      isym = 21     120 deg rotation - cart. axis [1,1,1]        

 cryst.   s(21) = (     0          1          0      )
                  (     0          0          1      )
                  (     1          0          0      )

 cart.    s(21) = ( -0.0000000  0.0000000  1.0000000 )
                  (  1.0000000  0.0000000 -0.0000000 )
                  (  0.0000000  1.0000000 -0.0000000 )


      isym = 22     120 deg rotation - cart. axis [-1,1,-1]      

 cryst.   s(22) = (    -1          0          1      )
                  (    -1          1          0      )
                  (    -1          0          0      )

 cart.    s(22) = (  0.0000000 -0.0000000  1.0000000 )
                  ( -1.0000000 -0.0000000 -0.0000000 )
                  ( -0.0000000 -1.0000000 -0.0000000 )


      isym = 23     120 deg rotation - cart. axis [1,-1,-1]      

 cryst.   s(23) = (     1          0         -1      )
                  (     0          0         -1      )
                  (     0          1         -1      )

 cart.    s(23) = (  0.0000000  0.0000000 -1.0000000 )
                  ( -1.0000000  0.0000000  0.0000000 )
                  ( -0.0000000  1.0000000  0.0000000 )


      isym = 24     120 deg rotation - cart. axis [-1,-1,1]      

 cryst.   s(24) = (     0         -1          0      )
                  (     1         -1          0      )
                  (     0         -1          1      )

 cart.    s(24) = ( -0.0000000 -0.0000000 -1.0000000 )
                  (  1.0000000 -0.0000000  0.0000000 )
                  (  0.0000000 -1.0000000  0.0000000 )


      isym = 25     inversion                                    

 cryst.   s(25) = (    -1          0          0      )
                  (     0         -1          0      )
                  (     0          0         -1      )

 cart.    s(25) = ( -1.0000000  0.0000000 -0.0000000 )
                  (  0.0000000 -1.0000000 -0.0000000 )
                  (  0.0000000 -0.0000000 -1.0000000 )


      isym = 26     inv. 180 deg rotation - cart. axis [0,0,1]   

 cryst.   s(26) = (     0         -1          1      )
                  (    -1          0          1      )
                  (     0          0          1      )

 cart.    s(26) = (  1.0000000 -0.0000000 -0.0000000 )
                  ( -0.0000000  1.0000000 -0.0000000 )
                  ( -0.0000000  0.0000000 -1.0000000 )


      isym = 27     inv. 180 deg rotation - cart. axis [0,1,0]   

 cryst.   s(27) = (     0          1         -1      )
                  (     0          1          0      )
                  (    -1          1          0      )

 cart.    s(27) = (  1.0000000  0.0000000  0.0000000 )
                  ( -0.0000000 -1.0000000  0.0000000 )
                  ( -0.0000000 -0.0000000  1.0000000 )


      isym = 28     inv. 180 deg rotation - cart. axis [1,0,0]   

 cryst.   s(28) = (     1          0          0      )
                  (     1          0         -1      )
                  (     1         -1          0      )

 cart.    s(28) = ( -1.0000000 -0.0000000  0.0000000 )
                  (  0.0000000  1.0000000  0.0000000 )
                  (  0.0000000  0.0000000  1.0000000 )


      isym = 29     inv. 180 deg rotation - cart. axis [1,1,0]   

 cryst.   s(29) = (     1          0         -1      )
                  (     0          1         -1      )
                  (     0          0         -1      )

 cart.    s(29) = (  0.0000000 -1.0000000  0.0000000 )
                  ( -1.0000000  0.0000000  0.0000000 )
                  ( -0.0000000  0.0000000  1.0000000 )


      isym = 30     inv. 180 deg rotation - cart. axis [1,-1,0]  

 cryst.   s(30) = (     0          1          0      )
                  (     1          0          0      )
                  (     0          0          1      )

 cart.    s(30) = ( -0.0000000  1.0000000  0.0000000 )
                  (  1.0000000 -0.0000000  0.0000000 )
                  (  0.0000000 -0.0000000  1.0000000 )


      isym = 31     inv.  90 deg rotation - cart. axis [0,0,-1]  

 cryst.   s(31) = (     0         -1          0      )
                  (     0         -1          1      )
                  (     1         -1          0      )

 cart.    s(31) = ( -0.0000000 -1.0000000 -0.0000000 )
                  (  1.0000000  0.0000000 -0.0000000 )
                  (  0.0000000  0.0000000 -1.0000000 )


      isym = 32     inv.  90 deg rotation - cart. axis [0,0,1]   

 cryst.   s(32) = (    -1          0          1      )
                  (    -1          0          0      )
                  (    -1          1          0      )

 cart.    s(32) = (  0.0000000  1.0000000 -0.0000000 )
                  ( -1.0000000 -0.0000000 -0.0000000 )
                  ( -0.0000000 -0.0000000 -1.0000000 )


      isym = 33     inv. 180 deg rotation - cart. axis [1,0,1]   

 cryst.   s(33) = (     1         -1          0      )
                  (     0         -1          0      )
                  (     0         -1          1      )

 cart.    s(33) = ( -0.0000000 -0.0000000 -1.0000000 )
                  ( -0.0000000  1.0000000  0.0000000 )
                  ( -1.0000000  0.0000000  0.0000000 )


      isym = 34     inv. 180 deg rotation - cart. axis [-1,0,1]  

 cryst.   s(34) = (     0          0          1      )
                  (     0          1          0      )
                  (     1          0          0      )

 cart.    s(34) = (  0.0000000 -0.0000000  1.0000000 )
                  (  0.0000000  1.0000000 -0.0000000 )
                  (  1.0000000  0.0000000 -0.0000000 )


      isym = 35     inv.  90 deg rotation - cart. axis [0,1,0]   

 cryst.   s(35) = (     0          0         -1      )
                  (     1          0         -1      )
                  (     0          1         -1      )

 cart.    s(35) = (  0.0000000  0.0000000 -1.0000000 )
                  (  0.0000000 -1.0000000  0.0000000 )
                  (  1.0000000 -0.0000000  0.0000000 )


      isym = 36     inv.  90 deg rotation - cart. axis [0,-1,0]  

 cryst.   s(36) = (    -1          1          0      )
                  (    -1          0          1      )
                  (    -1          0          0      )

 cart.    s(36) = ( -0.0000000  0.0000000  1.0000000 )
                  ( -0.0000000 -1.0000000 -0.0000000 )
                  ( -1.0000000 -0.0000000 -0.0000000 )


      isym = 37     inv. 180 deg rotation - cart. axis [0,1,1]   

 cryst.   s(37) = (    -1          0          0      )
                  (    -1          1          0      )
                  (    -1          0          1      )

 cart.    s(37) = (  1.0000000 -0.0000000  0.0000000 )
                  ( -0.0000000 -0.0000000 -1.0000000 )
                  ( -0.0000000 -1.0000000 -0.0000000 )


      isym = 38     inv. 180 deg rotation - cart. axis [0,1,-1]  

 cryst.   s(38) = (     1          0          0      )
                  (     0          0          1      )
                  (     0          1          0      )

 cart.    s(38) = (  1.0000000  0.0000000 -0.0000000 )
                  ( -0.0000000  0.0000000  1.0000000 )
                  ( -0.0000000  1.0000000  0.0000000 )


      isym = 39     inv.  90 deg rotation - cart. axis [-1,0,0]  

 cryst.   s(39) = (     0          1         -1      )
                  (     0          0         -1      )
                  (     1          0         -1      )

 cart.    s(39) = ( -1.0000000  0.0000000  0.0000000 )
                  (  0.0000000  0.0000000 -1.0000000 )
                  (  0.0000000  1.0000000 -0.0000000 )


      isym = 40     inv.  90 deg rotation - cart. axis [1,0,0]   

 cryst.   s(40) = (     0         -1          1      )
                  (     1         -1          0      )
                  (     0         -1          0      )

 cart.    s(40) = ( -1.0000000 -0.0000000 -0.0000000 )
                  (  0.0000000 -0.0000000  1.0000000 )
                  (  0.0000000 -1.0000000  0.0000000 )


      isym = 41     inv. 120 deg rotation - cart. axis [-1,-1,-1]

 cryst.   s(41) = (     0          0         -1      )
                  (    -1          0          0      )
                  (     0         -1          0      )

 cart.    s(41) = ( -0.0000000 -1.0000000  0.0000000 )
                  ( -0.0000000  0.0000000 -1.0000000 )
                  ( -1.0000000  0.0000000 -0.0000000 )


      isym = 42     inv. 120 deg rotation - cart. axis [-1,1,1]  

 cryst.   s(42) = (    -1          1          0      )
                  (     0          1         -1      )
                  (     0          1          0      )

 cart.    s(42) = (  0.0000000  1.0000000  0.0000000 )
                  (  0.0000000 -0.0000000 -1.0000000 )
                  (  1.0000000 -0.0000000 -0.0000000 )


      isym = 43     inv. 120 deg rotation - cart. axis [1,1,-1]  

 cryst.   s(43) = (     1         -1          0      )
                  (     1          0          0      )
                  (     1          0         -1      )

 cart.    s(43) = (  0.0000000 -1.0000000 -0.0000000 )
                  (  0.0000000  0.0000000  1.0000000 )
                  (  1.0000000  0.0000000  0.0000000 )


      isym = 44     inv. 120 deg rotation - cart. axis [1,-1,1]  

 cryst.   s(44) = (     0          0          1      )
                  (     0         -1          1      )
                  (    -1          0          1      )

 cart.    s(44) = ( -0.0000000  1.0000000 -0.0000000 )
                  ( -0.0000000 -0.0000000  1.0000000 )
                  ( -1.0000000 -0.0000000  0.0000000 )


      isym = 45     inv. 120 deg rotation - cart. axis [1,1,1]   

 cryst.   s(45) = (     0         -1          0      )
                  (     0          0         -1      )
                  (    -1          0          0      )

 cart.    s(45) = (  0.0000000 -0.0000000 -1.0000000 )
                  ( -1.0000000 -0.0000000  0.0000000 )
                  ( -0.0000000 -1.0000000  0.0000000 )


      isym = 46     inv. 120 deg rotation - cart. axis [-1,1,-1] 

 cryst.   s(46) = (     1          0         -1      )
                  (     1         -1          0      )
                  (     1          0          0      )

 cart.    s(46) = ( -0.0000000  0.0000000 -1.0000000 )
                  (  1.0000000  0.0000000  0.0000000 )
                  (  0.0000000  1.0000000  0.0000000 )


      isym = 47     inv. 120 deg rotation - cart. axis [1,-1,-1] 

 cryst.   s(47) = (    -1          0          1      )
                  (     0          0          1      )
                  (     0         -1          1      )

 cart.    s(47) = ( -0.0000000 -0.0000000  1.0000000 )
                  (  1.0000000 -0.0000000 -0.0000000 )
                  (  0.0000000 -1.0000000 -0.0000000 )


      isym = 48     inv. 120 deg rotation - cart. axis [-1,-1,1] 

 cryst.   s(48) = (     0          1          0      )
                  (    -1          1          0      )
                  (     0          1         -1      )

 cart.    s(48) = (  0.0000000  0.0000000  1.0000000 )
                  ( -1.0000000  0.0000000 -0.0000000 )
                  ( -0.0000000  1.0000000 -0.0000000 )


   Cartesian axes

     site n.     atom                  positions (alat units)
         1           Mg  tau(   1) = (   0.0000000   0.0000000   0.0000000  )
         2           Br  tau(   2) = (   0.3535534   0.3535534   1.0606602  )
         3           Br  tau(   3) = (   0.3535534   1.0606602   1.0606602  )
         4           N   tau(   4) = (   0.2944393  -0.0000000  -0.0000000  )
         5           N   tau(   5) = (   0.0000000   0.0000000   1.1197743  )
         6           N   tau(   6) = (   0.7071068   1.0015460  -0.0000000  )
         7           N   tau(   7) = (   0.7071068  -0.0000000   1.0015460  )
         8           N   tau(   8) = (   0.7071068   0.4126675   0.0000000  )
         9           N   tau(   9) = (   1.1197743  -0.0000000  -0.0000000  )

   Crystallographic axes

     site n.     atom                  positions (cryst. coord.)
         1           Mg  tau(   1) = (  0.0000000  0.0000000  0.0000000  )
         2           Br  tau(   2) = (  0.7500000  0.7500000 -0.2500000  )
         3           Br  tau(   3) = (  1.2500000  0.2500000  0.2500000  )
         4           N   tau(   4) = ( -0.2082000  0.2082000  0.2082000  )
         5           N   tau(   5) = (  0.7918000  0.7918000 -0.7918000  )
         6           N   tau(   6) = (  0.2082000 -0.2082000  1.2082000  )
         7           N   tau(   7) = (  0.2082000  1.2082000 -0.2082000  )
         8           N   tau(   8) = ( -0.2082000  0.2082000  0.7918000  )
         9           N   tau(   9) = ( -0.7918000  0.7918000  0.7918000  )

     number of k points=    20  Marzari-Vanderbilt smearing, width (Ry)=  0.0100
                       cart. coord. in units 2pi/alat
        k(    1) = (   0.0000000   0.0000000   0.0000000), wk =   0.0029155
        k(    2) = (   0.1010153   0.1010153  -0.1010153), wk =   0.0233236
        k(    3) = (   0.2020305   0.2020305  -0.2020305), wk =   0.0233236
        k(    4) = (   0.3030458   0.3030458  -0.3030458), wk =   0.0233236
        k(    5) = (   0.2020305  -0.0000000   0.0000000), wk =   0.0174927
        k(    6) = (   0.3030458   0.1010153  -0.1010153), wk =   0.0699708
        k(    7) = (   0.4040610   0.2020305  -0.2020305), wk =   0.0699708
        k(    8) = (  -0.2020305  -0.4040610   0.4040610), wk =   0.0699708
        k(    9) = (  -0.1010153  -0.3030458   0.3030458), wk =   0.0699708
        k(   10) = (  -0.0000000  -0.2020305   0.2020305), wk =   0.0349854
        k(   11) = (   0.4040610  -0.0000000   0.0000000), wk =   0.0174927
        k(   12) = (   0.5050763   0.1010153  -0.1010153), wk =   0.0699708
        k(   13) = (  -0.1010153  -0.5050763   0.5050763), wk =   0.0699708
        k(   14) = (   0.0000000  -0.4040610   0.4040610), wk =   0.0349854
        k(   15) = (   0.6060915  -0.0000000   0.0000000), wk =   0.0174927
        k(   16) = (  -0.0000000  -0.6060915   0.6060915), wk =   0.0349854
        k(   17) = (   0.4040610   0.2020305   0.0000000), wk =   0.0699708
        k(   18) = (  -0.2020305  -0.4040610   0.6060915), wk =   0.1399417
        k(   19) = (  -0.1010153  -0.5050763   0.7071068), wk =   0.0699708
        k(   20) = (  -0.0000000  -0.4040610   0.6060915), wk =   0.0699708

                       cryst. coord.
        k(    1) = (   0.0000000   0.0000000   0.0000000), wk =   0.0029155
        k(    2) = (   0.0000000   0.0000000   0.1428571), wk =   0.0233236
        k(    3) = (   0.0000000   0.0000000   0.2857143), wk =   0.0233236
        k(    4) = (  -0.0000000  -0.0000000   0.4285714), wk =   0.0233236
        k(    5) = (  -0.0000000   0.1428571   0.1428571), wk =   0.0174927
        k(    6) = (  -0.0000000   0.1428571   0.2857143), wk =   0.0699708
        k(    7) = (  -0.0000000   0.1428571   0.4285714), wk =   0.0699708
        k(    8) = (  -0.0000000   0.1428571  -0.4285714), wk =   0.0699708
        k(    9) = (   0.0000000   0.1428571  -0.2857143), wk =   0.0699708
        k(   10) = (  -0.0000000   0.1428571  -0.1428571), wk =   0.0349854
        k(   11) = (  -0.0000000   0.2857143   0.2857143), wk =   0.0174927
        k(   12) = (  -0.0000000   0.2857143   0.4285714), wk =   0.0699708
        k(   13) = (  -0.0000000   0.2857143  -0.4285714), wk =   0.0699708
        k(   14) = (  -0.0000000   0.2857143  -0.2857143), wk =   0.0349854
        k(   15) = (   0.0000000   0.4285714   0.4285714), wk =   0.0174927
        k(   16) = (   0.0000000   0.4285714  -0.4285714), wk =   0.0349854
        k(   17) = (   0.1428571   0.2857143   0.4285714), wk =   0.0699708
        k(   18) = (   0.1428571   0.2857143  -0.4285714), wk =   0.1399417
        k(   19) = (   0.1428571   0.4285714  -0.4285714), wk =   0.0699708
        k(   20) = (   0.1428571   0.4285714  -0.2857143), wk =   0.0699708

     Dense  grid:   337669 G-vectors     FFT dimensions: ( 100, 100, 100)

     Smooth grid:   119485 G-vectors     FFT dimensions: (  72,  72,  72)

     Dynamical RAM for                 wfc:       6.38 MB

     Dynamical RAM for     wfc (w. buffer):     261.43 MB

     Dynamical RAM for           str. fact:      15.46 MB

     Dynamical RAM for           local pot:       0.00 MB

     Dynamical RAM for          nlocal pot:      20.95 MB

     Dynamical RAM for                qrad:       5.27 MB

     Dynamical RAM for          rho,v,vnew:      76.69 MB

     Dynamical RAM for               rhoin:      25.56 MB

     Dynamical RAM for            rho*nmix:     164.88 MB

     Dynamical RAM for           G-vectors:      20.23 MB

     Dynamical RAM for          h,s,v(r/c):       0.14 MB

     Dynamical RAM for          <psi|beta>:       0.04 MB

     Dynamical RAM for                 psi:      12.75 MB

     Dynamical RAM for                hpsi:      12.75 MB

     Dynamical RAM for                spsi:      12.75 MB

     Dynamical RAM for      wfcinit/wfcrot:      16.43 MB

     Dynamical RAM for           addusdens:     994.42 MB

     Dynamical RAM for          addusforce:    1045.99 MB

     Dynamical RAM for         addusstress:    1043.37 MB

     Estimated static dynamical RAM per process >     491.98 MB

     Estimated max dynamical RAM per process >       1.66 GB
     Generating pointlists ...
     new r_m :   0.2077 (alat units)  2.8881 (a.u.) for type    1
     new r_m :   0.1215 (alat units)  1.6890 (a.u.) for type    2
     new r_m :   0.1215 (alat units)  1.6890 (a.u.) for type    3

     Initial potential from superposition of free atoms

     starting charge      45.9990, renormalised to      46.0000
     Starting wfcs are   36 randomized atomic wfcs
     Checking if some PAW data can be deallocated... 

     total cpu time spent up to now is        5.1 secs

     per-process dynamical memory:  1126.6 Mb

     Self-consistent Calculation
[tb_dev] Currently allocated     3.89E+00 Mbytes, locked:    0 /   8
[tb_pin] Currently allocated     0.00E+00 Mbytes, locked:    0 /   0

     iteration #  1     ecut=    60.00 Ry     beta= 0.40
     Davidson diagonalization with overlap

---- Real-time Memory Report at c_bands before calling an iterative solver
          1336 MiB given to the printing process from OS
          1127 MiB allocation reported by mallinfo(arena+hblkhd)
         57054 MiB available memory on the node where the printing process lives
     GPU memory used/free/total (MiB): 1434 / 14846 / 16280
------------------
     ethr =  1.00E-02,  avg # of iterations =  1.0

     total cpu time spent up to now is        7.0 secs

     total energy              =    -231.67182469 Ry
     estimated scf accuracy    <       0.50287039 Ry

     total magnetization       =     8.09 Bohr mag/cell
     absolute magnetization    =     8.09 Bohr mag/cell
[tb_dev] Currently allocated     3.89E+00 Mbytes, locked:    0 /   6
[tb_pin] Currently allocated     0.00E+00 Mbytes, locked:    0 /   0

     iteration #  2     ecut=    60.00 Ry     beta= 0.40
     Davidson diagonalization with overlap

---- Real-time Memory Report at c_bands before calling an iterative solver
          1448 MiB given to the printing process from OS
          1202 MiB allocation reported by mallinfo(arena+hblkhd)
         56977 MiB available memory on the node where the printing process lives
     GPU memory used/free/total (MiB): 2592 / 13688 / 16280
------------------
     ethr =  1.09E-03,  avg # of iterations =  9.0

     total cpu time spent up to now is       10.4 secs

     total energy              =    -231.91828536 Ry
     estimated scf accuracy    <       0.96124772 Ry

     total magnetization       =     7.02 Bohr mag/cell
     absolute magnetization    =     7.04 Bohr mag/cell
[tb_dev] Currently allocated     3.89E+00 Mbytes, locked:    0 /   6
[tb_pin] Currently allocated     0.00E+00 Mbytes, locked:    0 /   0

     iteration #  3     ecut=    60.00 Ry     beta= 0.40
     Davidson diagonalization with overlap

---- Real-time Memory Report at c_bands before calling an iterative solver
          1482 MiB given to the printing process from OS
          1215 MiB allocation reported by mallinfo(arena+hblkhd)
         56970 MiB available memory on the node where the printing process lives
     GPU memory used/free/total (MiB): 3100 / 13180 / 16280
------------------
     ethr =  1.09E-03,  avg # of iterations =  1.3

     total cpu time spent up to now is       12.3 secs

     total energy              =    -231.85750669 Ry
     estimated scf accuracy    <       0.31235094 Ry

     total magnetization       =     8.48 Bohr mag/cell
     absolute magnetization    =     8.48 Bohr mag/cell
[tb_dev] Currently allocated     3.89E+00 Mbytes, locked:    0 /   6
[tb_pin] Currently allocated     0.00E+00 Mbytes, locked:    0 /   0

     iteration #  4     ecut=    60.00 Ry     beta= 0.40
     Davidson diagonalization with overlap

---- Real-time Memory Report at c_bands before calling an iterative solver
          1516 MiB given to the printing process from OS
          1224 MiB allocation reported by mallinfo(arena+hblkhd)
         56962 MiB available memory on the node where the printing process lives
     GPU memory used/free/total (MiB): 3100 / 13180 / 16280
------------------
     c_bands:  1 eigenvalues not converged
     ethr =  6.79E-04,  avg # of iterations =  7.3

     total cpu time spent up to now is       15.2 secs

     total energy              =    -231.45929107 Ry
     estimated scf accuracy    <       2.81672860 Ry

     total magnetization       =     9.79 Bohr mag/cell
     absolute magnetization    =     9.81 Bohr mag/cell
[tb_dev] Currently allocated     3.89E+00 Mbytes, locked:    0 /   6
[tb_pin] Currently allocated     0.00E+00 Mbytes, locked:    0 /   0

     iteration #  5     ecut=    60.00 Ry     beta= 0.40
     Davidson diagonalization with overlap

---- Real-time Memory Report at c_bands before calling an iterative solver
          1552 MiB given to the printing process from OS
          1237 MiB allocation reported by mallinfo(arena+hblkhd)
         56952 MiB available memory on the node where the printing process lives
     GPU memory used/free/total (MiB): 3192 / 13088 / 16280
------------------
     c_bands:  1 eigenvalues not converged
     c_bands:  1 eigenvalues not converged
     c_bands:  2 eigenvalues not converged
     ethr =  6.79E-04,  avg # of iterations =  7.9

     total cpu time spent up to now is       18.6 secs

     total energy              =    -232.15225838 Ry
     estimated scf accuracy    <       0.51279249 Ry

     total magnetization       =    10.10 Bohr mag/cell
     absolute magnetization    =    10.12 Bohr mag/cell
[tb_dev] Currently allocated     3.89E+00 Mbytes, locked:    0 /   6
[tb_pin] Currently allocated     0.00E+00 Mbytes, locked:    0 /   0

     iteration #  6     ecut=    60.00 Ry     beta= 0.40
     Davidson diagonalization with overlap

---- Real-time Memory Report at c_bands before calling an iterative solver
          1586 MiB given to the printing process from OS
          1250 MiB allocation reported by mallinfo(arena+hblkhd)
         56938 MiB available memory on the node where the printing process lives
     GPU memory used/free/total (MiB): 3192 / 13088 / 16280
------------------
     ethr =  6.79E-04,  avg # of iterations =  1.1

     total cpu time spent up to now is       20.4 secs

     total energy              =    -232.25193360 Ry
     estimated scf accuracy    <       0.62104201 Ry

     total magnetization       =    10.14 Bohr mag/cell
     absolute magnetization    =    10.18 Bohr mag/cell
[tb_dev] Currently allocated     3.89E+00 Mbytes, locked:    0 /   6
[tb_pin] Currently allocated     0.00E+00 Mbytes, locked:    0 /   0

     iteration #  7     ecut=    60.00 Ry     beta= 0.40
     Davidson diagonalization with overlap

---- Real-time Memory Report at c_bands before calling an iterative solver
          1617 MiB given to the printing process from OS
          1259 MiB allocation reported by mallinfo(arena+hblkhd)
         56930 MiB available memory on the node where the printing process lives
     GPU memory used/free/total (MiB): 3192 / 13088 / 16280
------------------
     ethr =  6.79E-04,  avg # of iterations =  1.3

     total cpu time spent up to now is       22.4 secs

     total energy              =    -232.15206632 Ry
     estimated scf accuracy    <       0.74467639 Ry

     total magnetization       =    10.00 Bohr mag/cell
     absolute magnetization    =    10.08 Bohr mag/cell
[tb_dev] Currently allocated     3.89E+00 Mbytes, locked:    0 /   6
[tb_pin] Currently allocated     0.00E+00 Mbytes, locked:    0 /   0

     iteration #  8     ecut=    60.00 Ry     beta= 0.40
     Davidson diagonalization with overlap

---- Real-time Memory Report at c_bands before calling an iterative solver
          1644 MiB given to the printing process from OS
          1264 MiB allocation reported by mallinfo(arena+hblkhd)
         56924 MiB available memory on the node where the printing process lives
     GPU memory used/free/total (MiB): 3192 / 13088 / 16280
------------------
     ethr =  6.79E-04,  avg # of iterations =  1.0

     total cpu time spent up to now is       24.2 secs

     total energy              =    -232.13214684 Ry
     estimated scf accuracy    <       0.54562631 Ry

     total magnetization       =    10.00 Bohr mag/cell
     absolute magnetization    =    10.04 Bohr mag/cell
[tb_dev] Currently allocated     3.89E+00 Mbytes, locked:    0 /   6
[tb_pin] Currently allocated     0.00E+00 Mbytes, locked:    0 /   0

     iteration #  9     ecut=    60.00 Ry     beta= 0.40
     Davidson diagonalization with overlap

---- Real-time Memory Report at c_bands before calling an iterative solver
          1685 MiB given to the printing process from OS
          1281 MiB allocation reported by mallinfo(arena+hblkhd)
         56908 MiB available memory on the node where the printing process lives
     GPU memory used/free/total (MiB): 3192 / 13088 / 16280
------------------
     ethr =  6.79E-04,  avg # of iterations =  1.0

     total cpu time spent up to now is       26.1 secs

     total energy              =    -232.07043990 Ry
     estimated scf accuracy    <       0.49208117 Ry

     total magnetization       =    10.00 Bohr mag/cell
     absolute magnetization    =    10.03 Bohr mag/cell
[tb_dev] Currently allocated     3.89E+00 Mbytes, locked:    0 /   6
[tb_pin] Currently allocated     0.00E+00 Mbytes, locked:    0 /   0

     iteration # 10     ecut=    60.00 Ry     beta= 0.40
     Davidson diagonalization with overlap

---- Real-time Memory Report at c_bands before calling an iterative solver
          1718 MiB given to the printing process from OS
          1290 MiB allocation reported by mallinfo(arena+hblkhd)
         56899 MiB available memory on the node where the printing process lives
     GPU memory used/free/total (MiB): 3192 / 13088 / 16280
------------------
     ethr =  6.79E-04,  avg # of iterations =  1.0

     total cpu time spent up to now is       28.0 secs

     total energy              =    -232.10512533 Ry
     estimated scf accuracy    <       0.32431274 Ry

     total magnetization       =    10.00 Bohr mag/cell
     absolute magnetization    =    10.02 Bohr mag/cell
[tb_dev] Currently allocated     3.89E+00 Mbytes, locked:    0 /   6
[tb_pin] Currently allocated     0.00E+00 Mbytes, locked:    0 /   0

     iteration # 11     ecut=    60.00 Ry     beta= 0.40
     Davidson diagonalization with overlap

---- Real-time Memory Report at c_bands before calling an iterative solver
          1742 MiB given to the printing process from OS
          1291 MiB allocation reported by mallinfo(arena+hblkhd)
         56898 MiB available memory on the node where the printing process lives
     GPU memory used/free/total (MiB): 3192 / 13088 / 16280
------------------
     ethr =  6.79E-04,  avg # of iterations =  1.0

     total cpu time spent up to now is       29.9 secs

     total energy              =    -232.11912749 Ry
     estimated scf accuracy    <       0.40056086 Ry

     total magnetization       =    10.00 Bohr mag/cell
     absolute magnetization    =    10.03 Bohr mag/cell
[tb_dev] Currently allocated     3.89E+00 Mbytes, locked:    0 /   6
[tb_pin] Currently allocated     0.00E+00 Mbytes, locked:    0 /   0

     iteration # 12     ecut=    60.00 Ry     beta= 0.40
     Davidson diagonalization with overlap

---- Real-time Memory Report at c_bands before calling an iterative solver
          1765 MiB given to the printing process from OS
          1293 MiB allocation reported by mallinfo(arena+hblkhd)
         56898 MiB available memory on the node where the printing process lives
     GPU memory used/free/total (MiB): 3192 / 13088 / 16280
------------------
     ethr =  6.79E-04,  avg # of iterations =  1.0

     total cpu time spent up to now is       31.8 secs

     total energy              =    -231.87845515 Ry
     estimated scf accuracy    <       0.43096738 Ry

     total magnetization       =    10.00 Bohr mag/cell
     absolute magnetization    =    10.03 Bohr mag/cell
[tb_dev] Currently allocated     3.89E+00 Mbytes, locked:    0 /   6
[tb_pin] Currently allocated     0.00E+00 Mbytes, locked:    0 /   0

     iteration # 13     ecut=    60.00 Ry     beta= 0.40
     Davidson diagonalization with overlap

---- Real-time Memory Report at c_bands before calling an iterative solver
          1789 MiB given to the printing process from OS
          1295 MiB allocation reported by mallinfo(arena+hblkhd)
         56897 MiB available memory on the node where the printing process lives
     GPU memory used/free/total (MiB): 3192 / 13088 / 16280
------------------
     ethr =  6.79E-04,  avg # of iterations =  6.4

     total cpu time spent up to now is       34.8 secs

     total energy              =    -232.39861371 Ry
     estimated scf accuracy    <       4.13294277 Ry

     total magnetization       =     9.36 Bohr mag/cell
     absolute magnetization    =     9.63 Bohr mag/cell
[tb_dev] Currently allocated     3.89E+00 Mbytes, locked:    0 /   6
[tb_pin] Currently allocated     0.00E+00 Mbytes, locked:    0 /   0

     iteration # 14     ecut=    60.00 Ry     beta= 0.40
     Davidson diagonalization with overlap

---- Real-time Memory Report at c_bands before calling an iterative solver
          1813 MiB given to the printing process from OS
          1297 MiB allocation reported by mallinfo(arena+hblkhd)
         56898 MiB available memory on the node where the printing process lives
     GPU memory used/free/total (MiB): 3192 / 13088 / 16280
------------------
     ethr =  6.79E-04,  avg # of iterations =  1.3

     total cpu time spent up to now is       36.7 secs

     total energy              =    -232.36688324 Ry
     estimated scf accuracy    <       4.01869615 Ry

     total magnetization       =     9.42 Bohr mag/cell
     absolute magnetization    =     9.91 Bohr mag/cell
[tb_dev] Currently allocated     3.89E+00 Mbytes, locked:    0 /   6
[tb_pin] Currently allocated     0.00E+00 Mbytes, locked:    0 /   0

     iteration # 15     ecut=    60.00 Ry     beta= 0.40
     Davidson diagonalization with overlap

---- Real-time Memory Report at c_bands before calling an iterative solver
          1840 MiB given to the printing process from OS
          1299 MiB allocation reported by mallinfo(arena+hblkhd)
         56895 MiB available memory on the node where the printing process lives
     GPU memory used/free/total (MiB): 3192 / 13088 / 16280
------------------
     ethr =  6.79E-04,  avg # of iterations =  1.0

     total cpu time spent up to now is       38.6 secs

     total energy              =    -232.36760000 Ry
     estimated scf accuracy    <       3.48330293 Ry

     total magnetization       =     9.65 Bohr mag/cell
     absolute magnetization    =    10.30 Bohr mag/cell
[tb_dev] Currently allocated     3.89E+00 Mbytes, locked:    0 /   6
[tb_pin] Currently allocated     0.00E+00 Mbytes, locked:    0 /   0

     iteration # 16     ecut=    60.00 Ry     beta= 0.40
     Davidson diagonalization with overlap

---- Real-time Memory Report at c_bands before calling an iterative solver
          1865 MiB given to the printing process from OS
          1300 MiB allocation reported by mallinfo(arena+hblkhd)
         56893 MiB available memory on the node where the printing process lives
     GPU memory used/free/total (MiB): 3192 / 13088 / 16280
------------------
     ethr =  6.79E-04,  avg # of iterations =  1.0

     total cpu time spent up to now is       40.5 secs

     total energy              =    -232.04756261 Ry
     estimated scf accuracy    <       3.39374974 Ry

     total magnetization       =     9.63 Bohr mag/cell
     absolute magnetization    =    10.43 Bohr mag/cell
[tb_dev] Currently allocated     3.89E+00 Mbytes, locked:    0 /   6
[tb_pin] Currently allocated     0.00E+00 Mbytes, locked:    0 /   0

     iteration # 17     ecut=    60.00 Ry     beta= 0.40
     Davidson diagonalization with overlap

---- Real-time Memory Report at c_bands before calling an iterative solver
          1889 MiB given to the printing process from OS
          1302 MiB allocation reported by mallinfo(arena+hblkhd)
         56891 MiB available memory on the node where the printing process lives
     GPU memory used/free/total (MiB): 3192 / 13088 / 16280
------------------
     ethr =  6.79E-04,  avg # of iterations =  1.0

     total cpu time spent up to now is       42.4 secs

     total energy              =    -232.08119905 Ry
     estimated scf accuracy    <       1.02848602 Ry

     total magnetization       =    10.00 Bohr mag/cell
     absolute magnetization    =    13.25 Bohr mag/cell
[tb_dev] Currently allocated     3.89E+00 Mbytes, locked:    0 /   6
[tb_pin] Currently allocated     0.00E+00 Mbytes, locked:    0 /   0

     iteration # 18     ecut=    60.00 Ry     beta= 0.40
     Davidson diagonalization with overlap

---- Real-time Memory Report at c_bands before calling an iterative solver
          1912 MiB given to the printing process from OS
          1304 MiB allocation reported by mallinfo(arena+hblkhd)
         56890 MiB available memory on the node where the printing process lives
     GPU memory used/free/total (MiB): 3192 / 13088 / 16280
------------------
     ethr =  6.79E-04,  avg # of iterations =  1.0

     total cpu time spent up to now is       44.3 secs

     total energy              =    -232.09177454 Ry
     estimated scf accuracy    <       0.80318855 Ry

     total magnetization       =    10.00 Bohr mag/cell
     absolute magnetization    =    13.66 Bohr mag/cell
[tb_dev] Currently allocated     3.89E+00 Mbytes, locked:    0 /   6
[tb_pin] Currently allocated     0.00E+00 Mbytes, locked:    0 /   0

     iteration # 19     ecut=    60.00 Ry     beta= 0.40
     Davidson diagonalization with overlap

---- Real-time Memory Report at c_bands before calling an iterative solver
          1935 MiB given to the printing process from OS
          1306 MiB allocation reported by mallinfo(arena+hblkhd)
         56888 MiB available memory on the node where the printing process lives
     GPU memory used/free/total (MiB): 3192 / 13088 / 16280
------------------
     ethr =  6.79E-04,  avg # of iterations =  1.0

     total cpu time spent up to now is       46.2 secs

     total energy              =    -232.04195499 Ry
     estimated scf accuracy    <       0.81000601 Ry

     total magnetization       =    10.00 Bohr mag/cell
     absolute magnetization    =    13.58 Bohr mag/cell
[tb_dev] Currently allocated     3.89E+00 Mbytes, locked:    0 /   6
[tb_pin] Currently allocated     0.00E+00 Mbytes, locked:    0 /   0

     iteration # 20     ecut=    60.00 Ry     beta= 0.40
     Davidson diagonalization with overlap

---- Real-time Memory Report at c_bands before calling an iterative solver
          1963 MiB given to the printing process from OS
          1308 MiB allocation reported by mallinfo(arena+hblkhd)
         56885 MiB available memory on the node where the printing process lives
     GPU memory used/free/total (MiB): 3192 / 13088 / 16280
------------------
     ethr =  6.79E-04,  avg # of iterations =  1.0

     total cpu time spent up to now is       48.1 secs

     total energy              =    -232.12491576 Ry
     estimated scf accuracy    <       0.56138164 Ry

     total magnetization       =    10.00 Bohr mag/cell
     absolute magnetization    =    14.03 Bohr mag/cell
[tb_dev] Currently allocated     3.89E+00 Mbytes, locked:    0 /   6
[tb_pin] Currently allocated     0.00E+00 Mbytes, locked:    0 /   0

     iteration # 21     ecut=    60.00 Ry     beta= 0.40
     Davidson diagonalization with overlap

---- Real-time Memory Report at c_bands before calling an iterative solver
          1988 MiB given to the printing process from OS
          1310 MiB allocation reported by mallinfo(arena+hblkhd)
         56883 MiB available memory on the node where the printing process lives
     GPU memory used/free/total (MiB): 3192 / 13088 / 16280
------------------
     ethr =  6.79E-04,  avg # of iterations =  1.0

     negative rho (up, down):  0.000E+00 1.061E-05

     total cpu time spent up to now is       50.0 secs

     total energy              =    -231.55041995 Ry
     estimated scf accuracy    <       0.91303007 Ry

     total magnetization       =    10.01 Bohr mag/cell
     absolute magnetization    =    13.33 Bohr mag/cell
[tb_dev] Currently allocated     3.89E+00 Mbytes, locked:    0 /   6
[tb_pin] Currently allocated     0.00E+00 Mbytes, locked:    0 /   0

     iteration # 22     ecut=    60.00 Ry     beta= 0.40
     Davidson diagonalization with overlap

---- Real-time Memory Report at c_bands before calling an iterative solver
          2011 MiB given to the printing process from OS
          1312 MiB allocation reported by mallinfo(arena+hblkhd)
         56882 MiB available memory on the node where the printing process lives
     GPU memory used/free/total (MiB): 3192 / 13088 / 16280
------------------
     c_bands:  1 eigenvalues not converged
     c_bands:  1 eigenvalues not converged
     c_bands:  1 eigenvalues not converged
     c_bands:  1 eigenvalues not converged
     ethr =  6.79E-04,  avg # of iterations = 10.4

     total cpu time spent up to now is       54.3 secs

     total energy              =    -231.67631903 Ry
     estimated scf accuracy    <       2.24667741 Ry

     total magnetization       =    10.00 Bohr mag/cell
     absolute magnetization    =    10.01 Bohr mag/cell
[tb_dev] Currently allocated     3.89E+00 Mbytes, locked:    0 /   6
[tb_pin] Currently allocated     0.00E+00 Mbytes, locked:    0 /   0

     iteration # 23     ecut=    60.00 Ry     beta= 0.40
     Davidson diagonalization with overlap

---- Real-time Memory Report at c_bands before calling an iterative solver
          2025 MiB given to the printing process from OS
          1313 MiB allocation reported by mallinfo(arena+hblkhd)
         56883 MiB available memory on the node where the printing process lives
     GPU memory used/free/total (MiB): 3192 / 13088 / 16280
------------------
     c_bands:  1 eigenvalues not converged
     ethr =  6.79E-04,  avg # of iterations =  9.2

     total cpu time spent up to now is       58.1 secs

     total energy              =    -232.19666705 Ry
     estimated scf accuracy    <       0.30081272 Ry

     total magnetization       =    10.04 Bohr mag/cell
     absolute magnetization    =    11.35 Bohr mag/cell
[tb_dev] Currently allocated     3.89E+00 Mbytes, locked:    0 /   6
[tb_pin] Currently allocated     0.00E+00 Mbytes, locked:    0 /   0

     iteration # 24     ecut=    60.00 Ry     beta= 0.40
     Davidson diagonalization with overlap

---- Real-time Memory Report at c_bands before calling an iterative solver
          2038 MiB given to the printing process from OS
          1315 MiB allocation reported by mallinfo(arena+hblkhd)
         56876 MiB available memory on the node where the printing process lives
     GPU memory used/free/total (MiB): 3192 / 13088 / 16280
------------------
     ethr =  6.54E-04,  avg # of iterations =  4.8

     total cpu time spent up to now is       60.6 secs

     total energy              =    -232.21358262 Ry
     estimated scf accuracy    <       1.99288205 Ry

     total magnetization       =     8.61 Bohr mag/cell
     absolute magnetization    =    11.22 Bohr mag/cell
[tb_dev] Currently allocated     3.89E+00 Mbytes, locked:    0 /   6
[tb_pin] Currently allocated     0.00E+00 Mbytes, locked:    0 /   0

     iteration # 25     ecut=    60.00 Ry     beta= 0.40
     Davidson diagonalization with overlap

---- Real-time Memory Report at c_bands before calling an iterative solver
          2049 MiB given to the printing process from OS
          1317 MiB allocation reported by mallinfo(arena+hblkhd)
         56877 MiB available memory on the node where the printing process lives
     GPU memory used/free/total (MiB): 3192 / 13088 / 16280
------------------
     ethr =  6.54E-04,  avg # of iterations =  1.0

     total cpu time spent up to now is       62.4 secs

     total energy              =    -231.88985458 Ry
     estimated scf accuracy    <       1.34932893 Ry

     total magnetization       =    10.08 Bohr mag/cell
     absolute magnetization    =    10.82 Bohr mag/cell
[tb_dev] Currently allocated     3.89E+00 Mbytes, locked:    0 /   6
[tb_pin] Currently allocated     0.00E+00 Mbytes, locked:    0 /   0

     iteration # 26     ecut=    60.00 Ry     beta= 0.40
     Davidson diagonalization with overlap

---- Real-time Memory Report at c_bands before calling an iterative solver
          2062 MiB given to the printing process from OS
          1319 MiB allocation reported by mallinfo(arena+hblkhd)
         56874 MiB available memory on the node where the printing process lives
     GPU memory used/free/total (MiB): 3192 / 13088 / 16280
------------------
     ethr =  6.54E-04,  avg # of iterations =  1.7

     total cpu time spent up to now is       64.4 secs

     total energy              =    -232.03141813 Ry
     estimated scf accuracy    <       0.11838911 Ry

     total magnetization       =    10.00 Bohr mag/cell
     absolute magnetization    =    13.44 Bohr mag/cell
[tb_dev] Currently allocated     3.89E+00 Mbytes, locked:    0 /   6
[tb_pin] Currently allocated     0.00E+00 Mbytes, locked:    0 /   0

     iteration # 27     ecut=    60.00 Ry     beta= 0.40
     Davidson diagonalization with overlap

---- Real-time Memory Report at c_bands before calling an iterative solver
          2075 MiB given to the printing process from OS
          1321 MiB allocation reported by mallinfo(arena+hblkhd)
         56871 MiB available memory on the node where the printing process lives
     GPU memory used/free/total (MiB): 3192 / 13088 / 16280
------------------
     ethr =  2.57E-04,  avg # of iterations =  1.3

     total cpu time spent up to now is       66.4 secs

     total energy              =    -232.01361048 Ry
     estimated scf accuracy    <       0.23344519 Ry

     total magnetization       =    10.00 Bohr mag/cell
     absolute magnetization    =    13.00 Bohr mag/cell
[tb_dev] Currently allocated     3.89E+00 Mbytes, locked:    0 /   6
[tb_pin] Currently allocated     0.00E+00 Mbytes, locked:    0 /   0

     iteration # 28     ecut=    60.00 Ry     beta= 0.40
     Davidson diagonalization with overlap

---- Real-time Memory Report at c_bands before calling an iterative solver
          2087 MiB given to the printing process from OS
          1323 MiB allocation reported by mallinfo(arena+hblkhd)
         56870 MiB available memory on the node where the printing process lives
     GPU memory used/free/total (MiB): 3192 / 13088 / 16280
------------------
     ethr =  2.57E-04,  avg # of iterations =  1.0

     total cpu time spent up to now is       68.3 secs

     total energy              =    -231.99392190 Ry
     estimated scf accuracy    <       0.23943089 Ry

     total magnetization       =    10.00 Bohr mag/cell
     absolute magnetization    =    12.95 Bohr mag/cell
[tb_dev] Currently allocated     3.89E+00 Mbytes, locked:    0 /   6
[tb_pin] Currently allocated     0.00E+00 Mbytes, locked:    0 /   0

     iteration # 29     ecut=    60.00 Ry     beta= 0.40
     Davidson diagonalization with overlap

---- Real-time Memory Report at c_bands before calling an iterative solver
          2098 MiB given to the printing process from OS
          1325 MiB allocation reported by mallinfo(arena+hblkhd)
         56868 MiB available memory on the node where the printing process lives
     GPU memory used/free/total (MiB): 3192 / 13088 / 16280
------------------
     ethr =  2.57E-04,  avg # of iterations =  1.0

     total cpu time spent up to now is       70.2 secs

     total energy              =    -232.05512690 Ry
     estimated scf accuracy    <       0.51607901 Ry

     total magnetization       =    10.00 Bohr mag/cell
     absolute magnetization    =    11.98 Bohr mag/cell
[tb_dev] Currently allocated     3.89E+00 Mbytes, locked:    0 /   6
[tb_pin] Currently allocated     0.00E+00 Mbytes, locked:    0 /   0

     iteration # 30     ecut=    60.00 Ry     beta= 0.40
     Davidson diagonalization with overlap

---- Real-time Memory Report at c_bands before calling an iterative solver
          2109 MiB given to the printing process from OS
          1327 MiB allocation reported by mallinfo(arena+hblkhd)
         56866 MiB available memory on the node where the printing process lives
     GPU memory used/free/total (MiB): 3192 / 13088 / 16280
------------------
     ethr =  2.57E-04,  avg # of iterations =  1.5

     total cpu time spent up to now is       72.2 secs

     total energy              =    -232.08935902 Ry
     estimated scf accuracy    <       0.12746335 Ry

     total magnetization       =    10.00 Bohr mag/cell
     absolute magnetization    =    13.49 Bohr mag/cell
[tb_dev] Currently allocated     3.89E+00 Mbytes, locked:    0 /   6
[tb_pin] Currently allocated     0.00E+00 Mbytes, locked:    0 /   0

     iteration # 31     ecut=    60.00 Ry     beta= 0.40
     Davidson diagonalization with overlap

---- Real-time Memory Report at c_bands before calling an iterative solver
          2121 MiB given to the printing process from OS
          1328 MiB allocation reported by mallinfo(arena+hblkhd)
         56864 MiB available memory on the node where the printing process lives
     GPU memory used/free/total (MiB): 3192 / 13088 / 16280
------------------
     ethr =  2.57E-04,  avg # of iterations =  1.1
     Minimization algorithm failed to find Fermi energy: reverting to bisection
     Possible cause: smearing is larger than the electronic band-gap.

     total cpu time spent up to now is       74.1 secs

     total energy              =    -232.08792472 Ry
     estimated scf accuracy    <       0.06752979 Ry

     total magnetization       =    10.00 Bohr mag/cell
     absolute magnetization    =    13.72 Bohr mag/cell
[tb_dev] Currently allocated     3.89E+00 Mbytes, locked:    0 /   6
[tb_pin] Currently allocated     0.00E+00 Mbytes, locked:    0 /   0

     iteration # 32     ecut=    60.00 Ry     beta= 0.40
     Davidson diagonalization with overlap

---- Real-time Memory Report at c_bands before calling an iterative solver
          2129 MiB given to the printing process from OS
          1330 MiB allocation reported by mallinfo(arena+hblkhd)
         56862 MiB available memory on the node where the printing process lives
     GPU memory used/free/total (MiB): 3192 / 13088 / 16280
------------------
     ethr =  1.47E-04,  avg # of iterations =  1.1
     Minimization algorithm failed to find Fermi energy: reverting to bisection
     Possible cause: smearing is larger than the electronic band-gap.

     total cpu time spent up to now is       76.0 secs

     total energy              =    -232.07671375 Ry
     estimated scf accuracy    <       0.05052692 Ry

     total magnetization       =    10.00 Bohr mag/cell
     absolute magnetization    =    13.78 Bohr mag/cell
[tb_dev] Currently allocated     3.89E+00 Mbytes, locked:    0 /   6
[tb_pin] Currently allocated     0.00E+00 Mbytes, locked:    0 /   0

     iteration # 33     ecut=    60.00 Ry     beta= 0.40
     Davidson diagonalization with overlap

---- Real-time Memory Report at c_bands before calling an iterative solver
          2139 MiB given to the printing process from OS
          1332 MiB allocation reported by mallinfo(arena+hblkhd)
         56860 MiB available memory on the node where the printing process lives
     GPU memory used/free/total (MiB): 3192 / 13088 / 16280
------------------
     ethr =  1.10E-04,  avg # of iterations =  3.0
     Minimization algorithm failed to find Fermi energy: reverting to bisection
     Possible cause: smearing is larger than the electronic band-gap.

     total cpu time spent up to now is       78.2 secs

     total energy              =    -232.08052847 Ry
     estimated scf accuracy    <       0.02043063 Ry

     total magnetization       =    10.00 Bohr mag/cell
     absolute magnetization    =    13.86 Bohr mag/cell
[tb_dev] Currently allocated     3.89E+00 Mbytes, locked:    0 /   6
[tb_pin] Currently allocated     0.00E+00 Mbytes, locked:    0 /   0

     iteration # 34     ecut=    60.00 Ry     beta= 0.40
     Davidson diagonalization with overlap

---- Real-time Memory Report at c_bands before calling an iterative solver
          2145 MiB given to the printing process from OS
          1334 MiB allocation reported by mallinfo(arena+hblkhd)
         56859 MiB available memory on the node where the printing process lives
     GPU memory used/free/total (MiB): 3192 / 13088 / 16280
------------------
     c_bands:  5 eigenvalues not converged
     c_bands:  3 eigenvalues not converged
     c_bands:  4 eigenvalues not converged
     c_bands:  2 eigenvalues not converged
     c_bands:  3 eigenvalues not converged
     c_bands:  3 eigenvalues not converged
     ethr =  4.44E-05,  avg # of iterations = 11.8
     Minimization algorithm failed to find Fermi energy: reverting to bisection
     Possible cause: smearing is larger than the electronic band-gap.

     total cpu time spent up to now is       82.3 secs

     total energy              =    -232.11258085 Ry
     estimated scf accuracy    <       0.00289039 Ry

     total magnetization       =    10.00 Bohr mag/cell
     absolute magnetization    =    13.40 Bohr mag/cell
[tb_dev] Currently allocated     3.89E+00 Mbytes, locked:    0 /   6
[tb_pin] Currently allocated     0.00E+00 Mbytes, locked:    0 /   0

     iteration # 35     ecut=    60.00 Ry     beta= 0.40
     Davidson diagonalization with overlap

---- Real-time Memory Report at c_bands before calling an iterative solver
          2156 MiB given to the printing process from OS
          1336 MiB allocation reported by mallinfo(arena+hblkhd)
         56857 MiB available memory on the node where the printing process lives
     GPU memory used/free/total (MiB): 3192 / 13088 / 16280
------------------
     c_bands:  1 eigenvalues not converged
     c_bands:  4 eigenvalues not converged
     c_bands:  4 eigenvalues not converged
     c_bands:  4 eigenvalues not converged
     c_bands:  5 eigenvalues not converged
     c_bands:  1 eigenvalues not converged
     c_bands:  5 eigenvalues not converged
     c_bands:  5 eigenvalues not converged
     c_bands:  5 eigenvalues not converged
     c_bands:  3 eigenvalues not converged
     c_bands:  1 eigenvalues not converged
     c_bands:  1 eigenvalues not converged
     c_bands:  4 eigenvalues not converged
     c_bands:  2 eigenvalues not converged
     ethr =  6.28E-06,  avg # of iterations = 20.6

     total cpu time spent up to now is       89.3 secs

     total energy              =    -232.12701885 Ry
     estimated scf accuracy    <       0.13888399 Ry

     total magnetization       =    10.00 Bohr mag/cell
     absolute magnetization    =    12.29 Bohr mag/cell
[tb_dev] Currently allocated     3.89E+00 Mbytes, locked:    0 /   6
[tb_pin] Currently allocated     0.00E+00 Mbytes, locked:    0 /   0

     iteration # 36     ecut=    60.00 Ry     beta= 0.40
     Davidson diagonalization with overlap

---- Real-time Memory Report at c_bands before calling an iterative solver
          2163 MiB given to the printing process from OS
          1338 MiB allocation reported by mallinfo(arena+hblkhd)
         56858 MiB available memory on the node where the printing process lives
     GPU memory used/free/total (MiB): 3192 / 13088 / 16280
------------------
     c_bands:  1 eigenvalues not converged
     c_bands:  1 eigenvalues not converged
     c_bands:  3 eigenvalues not converged
     c_bands:  3 eigenvalues not converged
     c_bands:  1 eigenvalues not converged
     c_bands:  1 eigenvalues not converged
     c_bands:  2 eigenvalues not converged
     ethr =  6.28E-06,  avg # of iterations =  9.2

     total cpu time spent up to now is       92.9 secs

     total energy              =    -232.12958098 Ry
     estimated scf accuracy    <       0.05693717 Ry

     total magnetization       =    10.00 Bohr mag/cell
     absolute magnetization    =    12.81 Bohr mag/cell
[tb_dev] Currently allocated     3.89E+00 Mbytes, locked:    0 /   6
[tb_pin] Currently allocated     0.00E+00 Mbytes, locked:    0 /   0

     iteration # 37     ecut=    60.00 Ry     beta= 0.40
     Davidson diagonalization with overlap

---- Real-time Memory Report at c_bands before calling an iterative solver
          2175 MiB given to the printing process from OS
          1340 MiB allocation reported by mallinfo(arena+hblkhd)
         56856 MiB available memory on the node where the printing process lives
     GPU memory used/free/total (MiB): 3192 / 13088 / 16280
------------------
     c_bands:  1 eigenvalues not converged
     c_bands:  2 eigenvalues not converged
     c_bands:  2 eigenvalues not converged
     ethr =  6.28E-06,  avg # of iterations =  7.0

     total cpu time spent up to now is       96.1 secs

     total energy              =    -232.13508757 Ry
     estimated scf accuracy    <       0.01679804 Ry

     total magnetization       =    10.00 Bohr mag/cell
     absolute magnetization    =    12.91 Bohr mag/cell
[tb_dev] Currently allocated     3.89E+00 Mbytes, locked:    0 /   6
[tb_pin] Currently allocated     0.00E+00 Mbytes, locked:    0 /   0

     iteration # 38     ecut=    60.00 Ry     beta= 0.40
     Davidson diagonalization with overlap

---- Real-time Memory Report at c_bands before calling an iterative solver
          2183 MiB given to the printing process from OS
          1342 MiB allocation reported by mallinfo(arena+hblkhd)
         56853 MiB available memory on the node where the printing process lives
     GPU memory used/free/total (MiB): 3192 / 13088 / 16280
------------------
     c_bands:  1 eigenvalues not converged
     ethr =  6.28E-06,  avg # of iterations =  1.9

     total cpu time spent up to now is       98.2 secs

     total energy              =    -232.13537502 Ry
     estimated scf accuracy    <       0.02135056 Ry

     total magnetization       =    10.00 Bohr mag/cell
     absolute magnetization    =    12.92 Bohr mag/cell
[tb_dev] Currently allocated     3.89E+00 Mbytes, locked:    0 /   6
[tb_pin] Currently allocated     0.00E+00 Mbytes, locked:    0 /   0

     iteration # 39     ecut=    60.00 Ry     beta= 0.40
     Davidson diagonalization with overlap

---- Real-time Memory Report at c_bands before calling an iterative solver
          2190 MiB given to the printing process from OS
          1344 MiB allocation reported by mallinfo(arena+hblkhd)
         56850 MiB available memory on the node where the printing process lives
     GPU memory used/free/total (MiB): 3192 / 13088 / 16280
------------------
     c_bands:  1 eigenvalues not converged
     ethr =  6.28E-06,  avg # of iterations =  2.6

     total cpu time spent up to now is      100.4 secs

     total energy              =    -232.13602226 Ry
     estimated scf accuracy    <       0.02464804 Ry

     total magnetization       =    10.00 Bohr mag/cell
     absolute magnetization    =    12.85 Bohr mag/cell
[tb_dev] Currently allocated     3.89E+00 Mbytes, locked:    0 /   6
[tb_pin] Currently allocated     0.00E+00 Mbytes, locked:    0 /   0

     iteration # 40     ecut=    60.00 Ry     beta= 0.40
     Davidson diagonalization with overlap

---- Real-time Memory Report at c_bands before calling an iterative solver
          2202 MiB given to the printing process from OS
          1346 MiB allocation reported by mallinfo(arena+hblkhd)
         56850 MiB available memory on the node where the printing process lives
     GPU memory used/free/total (MiB): 3192 / 13088 / 16280
------------------
     c_bands:  1 eigenvalues not converged
     ethr =  6.28E-06,  avg # of iterations =  1.5
     Minimization algorithm failed to find Fermi energy: reverting to bisection
     Possible cause: smearing is larger than the electronic band-gap.

     total cpu time spent up to now is      102.3 secs

     total energy              =    -232.13513519 Ry
     estimated scf accuracy    <       0.02564635 Ry

     total magnetization       =    10.00 Bohr mag/cell
     absolute magnetization    =    12.85 Bohr mag/cell
[tb_dev] Currently allocated     3.89E+00 Mbytes, locked:    0 /   6
[tb_pin] Currently allocated     0.00E+00 Mbytes, locked:    0 /   0

     iteration # 41     ecut=    60.00 Ry     beta= 0.40
     Davidson diagonalization with overlap

---- Real-time Memory Report at c_bands before calling an iterative solver
          2210 MiB given to the printing process from OS
          1347 MiB allocation reported by mallinfo(arena+hblkhd)
         56847 MiB available memory on the node where the printing process lives
     GPU memory used/free/total (MiB): 3192 / 13088 / 16280
------------------
     ethr =  6.28E-06,  avg # of iterations =  1.0

     total cpu time spent up to now is      104.2 secs

     total energy              =    -232.13586595 Ry
     estimated scf accuracy    <       0.02322408 Ry

     total magnetization       =    10.00 Bohr mag/cell
     absolute magnetization    =    12.84 Bohr mag/cell
[tb_dev] Currently allocated     3.89E+00 Mbytes, locked:    0 /   6
[tb_pin] Currently allocated     0.00E+00 Mbytes, locked:    0 /   0

     iteration # 42     ecut=    60.00 Ry     beta= 0.40
     Davidson diagonalization with overlap

---- Real-time Memory Report at c_bands before calling an iterative solver
          2220 MiB given to the printing process from OS
          1349 MiB allocation reported by mallinfo(arena+hblkhd)
         56846 MiB available memory on the node where the printing process lives
     GPU memory used/free/total (MiB): 3192 / 13088 / 16280
------------------
     ethr =  6.28E-06,  avg # of iterations =  1.0

     total cpu time spent up to now is      106.1 secs

     total energy              =    -232.13466156 Ry
     estimated scf accuracy    <       0.02506586 Ry

     total magnetization       =    10.00 Bohr mag/cell
     absolute magnetization    =    12.85 Bohr mag/cell
[tb_dev] Currently allocated     3.89E+00 Mbytes, locked:    0 /   6
[tb_pin] Currently allocated     0.00E+00 Mbytes, locked:    0 /   0

     iteration # 43     ecut=    60.00 Ry     beta= 0.40
     Davidson diagonalization with overlap

---- Real-time Memory Report at c_bands before calling an iterative solver
          2229 MiB given to the printing process from OS
          1351 MiB allocation reported by mallinfo(arena+hblkhd)
         56844 MiB available memory on the node where the printing process lives
     GPU memory used/free/total (MiB): 3192 / 13088 / 16280
------------------
     ethr =  6.28E-06,  avg # of iterations =  1.0

     total cpu time spent up to now is      108.1 secs

     total energy              =    -232.11686664 Ry
     estimated scf accuracy    <       0.02301229 Ry

     total magnetization       =    10.00 Bohr mag/cell
     absolute magnetization    =    12.85 Bohr mag/cell
[tb_dev] Currently allocated     3.89E+00 Mbytes, locked:    0 /   6
[tb_pin] Currently allocated     0.00E+00 Mbytes, locked:    0 /   0

     iteration # 44     ecut=    60.00 Ry     beta= 0.40
     Davidson diagonalization with overlap

---- Real-time Memory Report at c_bands before calling an iterative solver
          2233 MiB given to the printing process from OS
          1353 MiB allocation reported by mallinfo(arena+hblkhd)
         56841 MiB available memory on the node where the printing process lives
     GPU memory used/free/total (MiB): 3192 / 13088 / 16280
------------------
     c_bands:  2 eigenvalues not converged
     c_bands:  5 eigenvalues not converged
     c_bands:  3 eigenvalues not converged
     c_bands:  4 eigenvalues not converged
     c_bands:  3 eigenvalues not converged
     c_bands:  1 eigenvalues not converged
     c_bands:  3 eigenvalues not converged
     c_bands:  2 eigenvalues not converged
     c_bands:  1 eigenvalues not converged
     c_bands:  5 eigenvalues not converged
     c_bands:  1 eigenvalues not converged
     c_bands:  5 eigenvalues not converged
     c_bands:  2 eigenvalues not converged
     c_bands:  1 eigenvalues not converged
     ethr =  6.28E-06,  avg # of iterations = 23.9

     total cpu time spent up to now is      116.5 secs

     total energy              =    -232.06088060 Ry
     estimated scf accuracy    <       0.82985322 Ry

     total magnetization       =    10.03 Bohr mag/cell
     absolute magnetization    =    15.47 Bohr mag/cell
[tb_dev] Currently allocated     3.89E+00 Mbytes, locked:    0 /   6
[tb_pin] Currently allocated     0.00E+00 Mbytes, locked:    0 /   0

     iteration # 45     ecut=    60.00 Ry     beta= 0.40
     Davidson diagonalization with overlap

---- Real-time Memory Report at c_bands before calling an iterative solver
          2247 MiB given to the printing process from OS
          1355 MiB allocation reported by mallinfo(arena+hblkhd)
         56840 MiB available memory on the node where the printing process lives
     GPU memory used/free/total (MiB): 3192 / 13088 / 16280
------------------
     c_bands:  2 eigenvalues not converged
     c_bands:  4 eigenvalues not converged
     c_bands:  4 eigenvalues not converged
     c_bands:  5 eigenvalues not converged
     c_bands:  5 eigenvalues not converged
     c_bands:  1 eigenvalues not converged
     c_bands:  5 eigenvalues not converged
     c_bands:  3 eigenvalues not converged
     c_bands:  4 eigenvalues not converged
     ethr =  6.28E-06,  avg # of iterations = 25.4
     Minimization algorithm failed to find Fermi energy: reverting to bisection
     Possible cause: smearing is larger than the electronic band-gap.

     total cpu time spent up to now is      125.2 secs

     total energy              =    -232.14116164 Ry
     estimated scf accuracy    <       0.00561394 Ry

     total magnetization       =    10.00 Bohr mag/cell
     absolute magnetization    =    13.16 Bohr mag/cell
[tb_dev] Currently allocated     3.89E+00 Mbytes, locked:    0 /   6
[tb_pin] Currently allocated     0.00E+00 Mbytes, locked:    0 /   0

     iteration # 46     ecut=    60.00 Ry     beta= 0.40
     Davidson diagonalization with overlap

---- Real-time Memory Report at c_bands before calling an iterative solver
          2255 MiB given to the printing process from OS
          1357 MiB allocation reported by mallinfo(arena+hblkhd)
         56841 MiB available memory on the node where the printing process lives
     GPU memory used/free/total (MiB): 3192 / 13088 / 16280
------------------
     c_bands:  4 eigenvalues not converged
     c_bands:  3 eigenvalues not converged
     c_bands:  1 eigenvalues not converged
     c_bands:  1 eigenvalues not converged
     c_bands:  5 eigenvalues not converged
     c_bands:  1 eigenvalues not converged
     c_bands:  4 eigenvalues not converged
     c_bands:  5 eigenvalues not converged
     ethr =  6.28E-06,  avg # of iterations = 11.6
     Minimization algorithm failed to find Fermi energy: reverting to bisection
     Possible cause: smearing is larger than the electronic band-gap.

     total cpu time spent up to now is      129.6 secs

     total energy              =    -232.14881902 Ry
     estimated scf accuracy    <       0.10435867 Ry

     total magnetization       =    10.00 Bohr mag/cell
     absolute magnetization    =    12.39 Bohr mag/cell
[tb_dev] Currently allocated     3.89E+00 Mbytes, locked:    0 /   6
[tb_pin] Currently allocated     0.00E+00 Mbytes, locked:    0 /   0

     iteration # 47     ecut=    60.00 Ry     beta= 0.40
     Davidson diagonalization with overlap

---- Real-time Memory Report at c_bands before calling an iterative solver
          2265 MiB given to the printing process from OS
          1359 MiB allocation reported by mallinfo(arena+hblkhd)
         56837 MiB available memory on the node where the printing process lives
     GPU memory used/free/total (MiB): 3192 / 13088 / 16280
------------------
     c_bands:  1 eigenvalues not converged
     c_bands:  2 eigenvalues not converged
     c_bands:  1 eigenvalues not converged
     ethr =  6.28E-06,  avg # of iterations =  4.1
     Minimization algorithm failed to find Fermi energy: reverting to bisection
     Possible cause: smearing is larger than the electronic band-gap.

     total cpu time spent up to now is      132.0 secs

     total energy              =    -232.12360562 Ry
     estimated scf accuracy    <       0.13512297 Ry

     total magnetization       =    10.00 Bohr mag/cell
     absolute magnetization    =    12.14 Bohr mag/cell
[tb_dev] Currently allocated     3.89E+00 Mbytes, locked:    0 /   6
[tb_pin] Currently allocated     0.00E+00 Mbytes, locked:    0 /   0

     iteration # 48     ecut=    60.00 Ry     beta= 0.40
     Davidson diagonalization with overlap

---- Real-time Memory Report at c_bands before calling an iterative solver
          2266 MiB given to the printing process from OS
          1361 MiB allocation reported by mallinfo(arena+hblkhd)
         56834 MiB available memory on the node where the printing process lives
     GPU memory used/free/total (MiB): 3192 / 13088 / 16280
------------------
     c_bands:  3 eigenvalues not converged
[...]
          2333 MiB given to the printing process from OS
          1401 MiB allocation reported by mallinfo(arena+hblkhd)
         56792 MiB available memory on the node where the printing process lives
     GPU memory used/free/total (MiB): 3192 / 13088 / 16280
------------------
     c_bands:  1 eigenvalues not converged
     c_bands:  3 eigenvalues not converged
     c_bands:  3 eigenvalues not converged
     c_bands:  2 eigenvalues not converged
     c_bands:  5 eigenvalues not converged
     c_bands:  2 eigenvalues not converged
     c_bands:  2 eigenvalues not converged
     c_bands:  3 eigenvalues not converged
     c_bands:  4 eigenvalues not converged
     c_bands:  2 eigenvalues not converged
     ethr =  3.78E-08,  avg # of iterations = 19.0
     Minimization algorithm failed to find Fermi energy: reverting to bisection
     Possible cause: smearing is larger than the electronic band-gap.

     total cpu time spent up to now is      214.2 secs

     WARNING: integrated charge=    46.00629064, expected=    46.00000000

     total energy              =    -232.14057917 Ry
     estimated scf accuracy    <       0.00086471 Ry

     total magnetization       =    10.00 Bohr mag/cell
     absolute magnetization    =    13.32 Bohr mag/cell
[tb_dev] Currently allocated     3.89E+00 Mbytes, locked:    0 /   6
[tb_pin] Currently allocated     0.00E+00 Mbytes, locked:    0 /   0

     iteration # 70     ecut=    60.00 Ry     beta= 0.40
     Davidson diagonalization with overlap

---- Real-time Memory Report at c_bands before calling an iterative solver
          2333 MiB given to the printing process from OS
          1403 MiB allocation reported by mallinfo(arena+hblkhd)
         56789 MiB available memory on the node where the printing process lives
     GPU memory used/free/total (MiB): 3192 / 13088 / 16280
------------------
     ethr =  3.78E-08,  avg # of iterations =  7.6
     Minimization algorithm failed to find Fermi energy: reverting to bisection
     Possible cause: smearing is larger than the electronic band-gap.

     total cpu time spent up to now is      217.2 secs

     WARNING: integrated charge=    46.00340890, expected=    46.00000000

     total energy              =    -232.14050866 Ry
     estimated scf accuracy    <       0.00060469 Ry

     total magnetization       =    10.00 Bohr mag/cell
     absolute magnetization    =    13.32 Bohr mag/cell
[tb_dev] Currently allocated     3.89E+00 Mbytes, locked:    0 /   6
[tb_pin] Currently allocated     0.00E+00 Mbytes, locked:    0 /   0

     iteration # 71     ecut=    60.00 Ry     beta= 0.40
     Davidson diagonalization with overlap

---- Real-time Memory Report at c_bands before calling an iterative solver
          2337 MiB given to the printing process from OS
          1404 MiB allocation reported by mallinfo(arena+hblkhd)
         56788 MiB available memory on the node where the printing process lives
     GPU memory used/free/total (MiB): 3192 / 13088 / 16280
------------------
     c_bands:  5 eigenvalues not converged
     c_bands:  1 eigenvalues not converged
     c_bands:  5 eigenvalues not converged
     c_bands:  1 eigenvalues not converged
     c_bands:  4 eigenvalues not converged
     c_bands:  2 eigenvalues not converged
     c_bands:  5 eigenvalues not converged
     c_bands:  5 eigenvalues not converged
     ethr =  3.78E-08,  avg # of iterations = 14.2
     Minimization algorithm failed to find Fermi energy: reverting to bisection
     Possible cause: smearing is larger than the electronic band-gap.

     total cpu time spent up to now is      222.5 secs

     WARNING: integrated charge=    46.00300764, expected=    46.00000000

     total energy              =    -232.14057542 Ry
     estimated scf accuracy    <       0.00001273 Ry

     total magnetization       =    10.00 Bohr mag/cell
     absolute magnetization    =    13.41 Bohr mag/cell
[tb_dev] Currently allocated     3.89E+00 Mbytes, locked:    0 /   6
[tb_pin] Currently allocated     0.00E+00 Mbytes, locked:    0 /   0

     iteration # 72     ecut=    60.00 Ry     beta= 0.40
     Davidson diagonalization with overlap

---- Real-time Memory Report at c_bands before calling an iterative solver
          2339 MiB given to the printing process from OS
          1406 MiB allocation reported by mallinfo(arena+hblkhd)
         56787 MiB available memory on the node where the printing process lives
     GPU memory used/free/total (MiB): 3192 / 13088 / 16280
------------------
     ethr =  2.77E-08,  avg # of iterations =  2.4
     Minimization algorithm failed to find Fermi energy: reverting to bisection
     Possible cause: smearing is larger than the electronic band-gap.

     total cpu time spent up to now is      224.6 secs

     WARNING: integrated charge=    46.00309944, expected=    46.00000000

     total energy              =    -232.14057303 Ry
     estimated scf accuracy    <       0.00001409 Ry

     total magnetization       =    10.00 Bohr mag/cell
     absolute magnetization    =    13.42 Bohr mag/cell
[tb_dev] Currently allocated     3.89E+00 Mbytes, locked:    0 /   6
[tb_pin] Currently allocated     0.00E+00 Mbytes, locked:    0 /   0

     iteration # 73     ecut=    60.00 Ry     beta= 0.40
     Davidson diagonalization with overlap

---- Real-time Memory Report at c_bands before calling an iterative solver
          2341 MiB given to the printing process from OS
          1408 MiB allocation reported by mallinfo(arena+hblkhd)
         56785 MiB available memory on the node where the printing process lives
     GPU memory used/free/total (MiB): 3192 / 13088 / 16280
------------------
     c_bands:  3 eigenvalues not converged
     ethr =  2.77E-08,  avg # of iterations =  6.5
     Minimization algorithm failed to find Fermi energy: reverting to bisection
     Possible cause: smearing is larger than the electronic band-gap.

     total cpu time spent up to now is      227.6 secs

     WARNING: integrated charge=    46.00287061, expected=    46.00000000

     total energy              =    -232.14057984 Ry
     estimated scf accuracy    <       0.00000470 Ry

     total magnetization       =    10.00 Bohr mag/cell
     absolute magnetization    =    13.40 Bohr mag/cell
[tb_dev] Currently allocated     3.89E+00 Mbytes, locked:    0 /   6
[tb_pin] Currently allocated     0.00E+00 Mbytes, locked:    0 /   0

     iteration # 74     ecut=    60.00 Ry     beta= 0.40
     Davidson diagonalization with overlap

---- Real-time Memory Report at c_bands before calling an iterative solver
          2341 MiB given to the printing process from OS
          1410 MiB allocation reported by mallinfo(arena+hblkhd)
         56783 MiB available memory on the node where the printing process lives
     GPU memory used/free/total (MiB): 3192 / 13088 / 16280
------------------
     c_bands:  3 eigenvalues not converged
     c_bands:  2 eigenvalues not converged
     c_bands:  5 eigenvalues not converged
     c_bands:  5 eigenvalues not converged
     c_bands:  1 eigenvalues not converged
     c_bands:  1 eigenvalues not converged
     c_bands:  5 eigenvalues not converged
     c_bands:  2 eigenvalues not converged
     ethr =  1.02E-08,  avg # of iterations =  9.5
     Minimization algorithm failed to find Fermi energy: reverting to bisection
     Possible cause: smearing is larger than the electronic band-gap.

     total cpu time spent up to now is      231.3 secs

     WARNING: integrated charge=    46.00264584, expected=    46.00000000

     total energy              =    -232.14058386 Ry
     estimated scf accuracy    <       0.00007109 Ry

     total magnetization       =    10.00 Bohr mag/cell
     absolute magnetization    =    13.38 Bohr mag/cell
[tb_dev] Currently allocated     3.89E+00 Mbytes, locked:    0 /   6
[tb_pin] Currently allocated     0.00E+00 Mbytes, locked:    0 /   0

     iteration # 75     ecut=    60.00 Ry     beta= 0.40
     Davidson diagonalization with overlap

---- Real-time Memory Report at c_bands before calling an iterative solver
          2344 MiB given to the printing process from OS
          1412 MiB allocation reported by mallinfo(arena+hblkhd)
         56780 MiB available memory on the node where the printing process lives
     GPU memory used/free/total (MiB): 3192 / 13088 / 16280
------------------
     ethr =  1.02E-08,  avg # of iterations =  1.3
     Minimization algorithm failed to find Fermi energy: reverting to bisection
     Possible cause: smearing is larger than the electronic band-gap.

     total cpu time spent up to now is      233.2 secs

     WARNING: integrated charge=    46.00033562, expected=    46.00000000

     total energy              =    -232.14057427 Ry
     estimated scf accuracy    <       0.00006695 Ry

     total magnetization       =    10.00 Bohr mag/cell
     absolute magnetization    =    13.38 Bohr mag/cell
[tb_dev] Currently allocated     3.89E+00 Mbytes, locked:    0 /   6
[tb_pin] Currently allocated     0.00E+00 Mbytes, locked:    0 /   0

     iteration # 76     ecut=    60.00 Ry     beta= 0.40
     Davidson diagonalization with overlap

---- Real-time Memory Report at c_bands before calling an iterative solver
          2347 MiB given to the printing process from OS
          1414 MiB allocation reported by mallinfo(arena+hblkhd)
         56777 MiB available memory on the node where the printing process lives
     GPU memory used/free/total (MiB): 3192 / 13088 / 16280
------------------
     c_bands:  3 eigenvalues not converged
     c_bands:  1 eigenvalues not converged
     c_bands:  2 eigenvalues not converged
     c_bands:  1 eigenvalues not converged
     c_bands:  2 eigenvalues not converged
     c_bands:  4 eigenvalues not converged
     ethr =  1.02E-08,  avg # of iterations =  8.4
     Minimization algorithm failed to find Fermi energy: reverting to bisection
     Possible cause: smearing is larger than the electronic band-gap.

     total cpu time spent up to now is      236.6 secs

     WARNING: integrated charge=    46.00023627, expected=    46.00000000

     total energy              =    -232.14057731 Ry
     estimated scf accuracy    <       0.00001112 Ry

     total magnetization       =    10.00 Bohr mag/cell
     absolute magnetization    =    13.39 Bohr mag/cell
[tb_dev] Currently allocated     3.89E+00 Mbytes, locked:    0 /   6
[tb_pin] Currently allocated     0.00E+00 Mbytes, locked:    0 /   0

     iteration # 77     ecut=    60.00 Ry     beta= 0.40
     Davidson diagonalization with overlap

---- Real-time Memory Report at c_bands before calling an iterative solver
          2349 MiB given to the printing process from OS
          1416 MiB allocation reported by mallinfo(arena+hblkhd)
         56776 MiB available memory on the node where the printing process lives
     GPU memory used/free/total (MiB): 3192 / 13088 / 16280
------------------
     ethr =  1.02E-08,  avg # of iterations =  2.0
     Minimization algorithm failed to find Fermi energy: reverting to bisection
     Possible cause: smearing is larger than the electronic band-gap.

     total cpu time spent up to now is      238.7 secs

     total energy              =    -232.14057864 Ry
     estimated scf accuracy    <       0.00000845 Ry

     total magnetization       =    10.00 Bohr mag/cell
     absolute magnetization    =    13.39 Bohr mag/cell
[tb_dev] Currently allocated     3.89E+00 Mbytes, locked:    0 /   6
[tb_pin] Currently allocated     0.00E+00 Mbytes, locked:    0 /   0

     iteration # 78     ecut=    60.00 Ry     beta= 0.40
     Davidson diagonalization with overlap

---- Real-time Memory Report at c_bands before calling an iterative solver
          2349 MiB given to the printing process from OS
          1418 MiB allocation reported by mallinfo(arena+hblkhd)
         56774 MiB available memory on the node where the printing process lives
     GPU memory used/free/total (MiB): 3192 / 13088 / 16280
------------------
     ethr =  1.02E-08,  avg # of iterations =  1.0
     Minimization algorithm failed to find Fermi energy: reverting to bisection
     Possible cause: smearing is larger than the electronic band-gap.

     total cpu time spent up to now is      240.6 secs

     WARNING: integrated charge=    46.00008669, expected=    46.00000000

     total energy              =    -232.14058091 Ry
     estimated scf accuracy    <       0.00001126 Ry

     total magnetization       =    10.00 Bohr mag/cell
     absolute magnetization    =    13.40 Bohr mag/cell
[tb_dev] Currently allocated     3.89E+00 Mbytes, locked:    0 /   6
[tb_pin] Currently allocated     0.00E+00 Mbytes, locked:    0 /   0

     iteration # 79     ecut=    60.00 Ry     beta= 0.40
     Davidson diagonalization with overlap

---- Real-time Memory Report at c_bands before calling an iterative solver
          2353 MiB given to the printing process from OS
          1420 MiB allocation reported by mallinfo(arena+hblkhd)
         56772 MiB available memory on the node where the printing process lives
     GPU memory used/free/total (MiB): 3192 / 13088 / 16280
------------------
     ethr =  1.02E-08,  avg # of iterations =  2.1
     Minimization algorithm failed to find Fermi energy: reverting to bisection
     Possible cause: smearing is larger than the electronic band-gap.

     total cpu time spent up to now is      242.7 secs

     WARNING: integrated charge=    46.00004111, expected=    46.00000000

     total energy              =    -232.14057976 Ry
     estimated scf accuracy    <       0.00002073 Ry

     total magnetization       =    10.00 Bohr mag/cell
     absolute magnetization    =    13.39 Bohr mag/cell
[tb_dev] Currently allocated     3.89E+00 Mbytes, locked:    0 /   6
[tb_pin] Currently allocated     0.00E+00 Mbytes, locked:    0 /   0

     iteration # 80     ecut=    60.00 Ry     beta= 0.40
     Davidson diagonalization with overlap

---- Real-time Memory Report at c_bands before calling an iterative solver
          2353 MiB given to the printing process from OS
          1422 MiB allocation reported by mallinfo(arena+hblkhd)
         56771 MiB available memory on the node where the printing process lives
     GPU memory used/free/total (MiB): 3192 / 13088 / 16280
------------------
     ethr =  1.02E-08,  avg # of iterations =  1.0
     Minimization algorithm failed to find Fermi energy: reverting to bisection
     Possible cause: smearing is larger than the electronic band-gap.

     total cpu time spent up to now is      244.6 secs

     WARNING: integrated charge=    46.00001581, expected=    46.00000000

     total energy              =    -232.14057876 Ry
     estimated scf accuracy    <       0.00001748 Ry

     total magnetization       =    10.00 Bohr mag/cell
     absolute magnetization    =    13.39 Bohr mag/cell

     End of self-consistent calculation

     convergence NOT achieved after  80 iterations: stopping

     Writing config to output data dir ./out/aiida.save/
 
     init_run     :     19.67s CPU      4.45s WALL (       1 calls)
     electrons    :    572.81s CPU    239.51s WALL (       1 calls)

     Called by init_run:
     wfcinit      :      1.24s CPU      1.84s WALL (       1 calls)
                                        1.84s GPU  (       1 calls)
     wfcinit:atom :      0.02s CPU      0.03s WALL (      40 calls)
                                        0.03s GPU  (      40 calls)
     wfcinit:wfcr :      0.79s CPU      1.26s WALL (      40 calls)
                                        1.26s GPU  (      40 calls)
     potinit      :      5.97s CPU      0.58s WALL (       1 calls)
     hinit0       :      7.07s CPU      1.12s WALL (       1 calls)

     Called by electrons:
     c_bands      :    242.35s CPU    179.10s WALL (      80 calls)
     sum_band     :     30.72s CPU     32.24s WALL (      80 calls)
     v_of_rho     :     62.30s CPU      5.62s WALL (      81 calls)
     v_h          :      9.00s CPU      0.80s WALL (      81 calls)
     v_xc         :     53.29s CPU      4.82s WALL (      81 calls)
     newd         :     78.41s CPU      7.54s WALL (      81 calls)
                                        7.53s GPU  (      81 calls)
     PAW_pot      :     73.08s CPU      6.81s WALL (      81 calls)
     mix_rho      :     64.92s CPU      6.32s WALL (      80 calls)

     Called by c_bands:
     init_us_2    :     10.59s CPU      8.74s WALL (    6440 calls)
     init_us_2:gp :     10.42s CPU      8.62s WALL (    6440 calls)
     cegterg      :    210.89s CPU    158.74s WALL (    3343 calls)

     Called by sum_band:
     sum_band:wei :      0.16s CPU      0.16s WALL (      80 calls)
                                        0.16s GPU  (      80 calls)
     sum_band:loo :     21.38s CPU     22.78s WALL (      80 calls)
                                       22.78s GPU  (      80 calls)
     sum_band:buf :      5.99s CPU      6.16s WALL (    3200 calls)
                                        6.13s GPU  (    3200 calls)
     sum_band:ini :      3.46s CPU      3.86s WALL (    3200 calls)
                                        3.84s GPU  (    3200 calls)
     sum_band:cal :      0.10s CPU      1.41s WALL (    3200 calls)
                                        0.65s GPU  (    3200 calls)
     sum_band:bec :      0.81s CPU      0.87s WALL (    3200 calls)
                                        0.85s GPU  (    3200 calls)
     addusdens    :      5.40s CPU      5.52s WALL (      80 calls)
                                        5.51s GPU  (      80 calls)
     addusd:skk   :      0.04s CPU      0.04s WALL (     240 calls)
                                        0.04s GPU  (     240 calls)

     Called by *egterg:
     cdiaghg      :     59.49s CPU     48.63s WALL (   22131 calls)
                                       48.48s GPU  (   22131 calls)
     cegterg:over :      6.36s CPU      5.00s WALL (   18788 calls)
     cegterg:upda :      6.84s CPU      5.56s WALL (   18788 calls)
     cegterg:last :      2.39s CPU      2.06s WALL (    8527 calls)
     h_psi        :    117.92s CPU     84.97s WALL (   22171 calls)
                                       84.78s GPU  (   22171 calls)
     s_psi        :      3.58s CPU      5.42s WALL (   22171 calls)
                                        5.03s GPU  (   22171 calls)
     g_psi        :      0.19s CPU      0.64s WALL (   18788 calls)
                                        0.53s GPU  (   18788 calls)

     Called by h_psi:
     h_psi:calbec :      1.05s CPU      4.29s WALL (   22171 calls)
                                        4.15s GPU  (   22171 calls)
     vloc_psi     :     99.33s CPU     71.70s WALL (   22171 calls)
                                       71.56s GPU  (   22171 calls)
     add_vuspsi   :      6.54s CPU      7.21s WALL (   22171 calls)
                                        7.08s GPU  (   22171 calls)

     General routines
     calbec       :      0.84s CPU      0.65s WALL (   25371 calls)
     fft          :      3.37s CPU      0.78s WALL (    2023 calls)
                                        0.60s GPU  (    1861 calls)
     ffts         :      0.15s CPU      0.08s WALL (     322 calls)
                                        0.02s GPU  (     160 calls)
     fftw         :      2.01s CPU     55.84s WALL (   66210 calls)
                                       55.36s GPU  (   66210 calls)
     interpolate  :      9.31s CPU      0.82s WALL (     162 calls)
     davcio       :      0.46s CPU      0.20s WALL (      58 calls)
 
     Parallel routines

     PAW routines
     PAW_pot      :     73.08s CPU      6.81s WALL (      81 calls)
     PAW_symme    :      0.09s CPU      0.02s WALL (     161 calls)
 
     PWSCF        :   9m55.18s CPU   4m 4.91s WALL

 
   This run was terminated on:  17:13:33  22Oct2023            

=------------------------------------------------------------------------------=
   JOB DONE.
=------------------------------------------------------------------------------=
