
     Program PWSCF v.7.2 starts on 23Oct2023 at 17:47:11 

     This program is part of the open-source Quantum ESPRESSO suite
     for quantum simulation of materials; please cite
         "P. Giannozzi et al., J. Phys.:Condens. Matter 21 395502 (2009);
         "P. Giannozzi et al., J. Phys.:Condens. Matter 29 465901 (2017);
         "P. Giannozzi et al., J. Chem. Phys. 152 154105 (2020);
          URL http://www.quantum-espresso.org", 
     in publications or presentations arising from this work. More details at
     http://www.quantum-espresso.org/quote

     Parallel version (MPI & OpenMP), running on      12 processor cores
     Number of MPI processes:                 1
     Threads/MPI process:                    12

     MPI processes distributed on     1 nodes
     60385 MiB available memory on the printing compute node when the environment starts
 
     Reading input from aiida.in

     Current dimensions of program PWSCF are:
     Max number of different atomic species (ntypx) = 10
     Max number of k-points (npk) =  40000
     Max angular momentum in pseudopotentials (lmaxx) =  4
     file C.pbesol-n-kjpaw_psl.1.0.0.UPF: wavefunction(s)  2S 2P renormalized
     Message from routine setup:
     using ibrav=0 with symmetry is DISCOURAGED, use correct ibrav instead
 
     Subspace diagonalization in iterative solution of the eigenvalue problem:
     a serial algorithm will be used

 
     G-vector sticks info
     --------------------
     sticks:   dense  smooth     PW     G-vecs:    dense   smooth      PW
     Sum        5073    2545    717               272489    96177   14363
 
     Using Slab Decomposition
 


     bravais-lattice index     =            0
     lattice parameter (alat)  =      13.3197  a.u.
     unit-cell volume          =    2363.1251 (a.u.)^3
     number of atoms/cell      =            4
     number of atomic types    =            2
     number of electrons       =        25.00
     number of Kohn-Sham states=           17
     kinetic-energy cutoff     =      45.0000  Ry
     charge density cutoff     =     360.0000  Ry
     scf convergence threshold =      8.0E-10
     mixing beta               =       0.2000
     number of iterations used =            8  plain     mixing
     Exchange-correlation= SLA  PW   PSX  PSC
                           (   1   4  10   8   0   0   0)

     GPU acceleration is ACTIVE.


     GPU used by master process:

        Device Number: 0
        Device name: Tesla P100-PCIE-16GB
        Compute capability : 60
        Ratio of single to double precision performance  : 2
        Memory Clock Rate (KHz): 715000
        Memory Bus Width (bits): 4096
        Peak Memory Bandwidth (GB/s): 732.16

     celldm(1)=  13.319735  celldm(2)=   0.000000  celldm(3)=   0.000000
     celldm(4)=   0.000000  celldm(5)=   0.000000  celldm(6)=   0.000000

     crystal axes: (cart. coord. in units of alat)
               a(1) = (   1.000000   0.000000   0.000000 )  
               a(2) = (   0.000000   1.000000   0.000000 )  
               a(3) = (   0.000000   0.000000   1.000000 )  

     reciprocal axes: (cart. coord. in units 2 pi/alat)
               b(1) = (  1.000000  0.000000  0.000000 )  
               b(2) = (  0.000000  1.000000  0.000000 )  
               b(3) = (  0.000000  0.000000  1.000000 )  


     PseudoPot. # 1 for C  read from file:
     ./pseudo/C.pbesol-n-kjpaw_psl.1.0.0.UPF
     MD5 check sum: 5f3a56537b2bcef3348431d8311bb923
     Pseudo is Projector augmented-wave + core cor, Zval =  4.0
     Generated using "atomic" code by A. Dal Corso  v.6.0 svn rev. 13079
     Shape of augmentation charge: PSQ
     Using radial grid of 1073 points,  4 beta functions with: 
                l(1) =   0
                l(2) =   0
                l(3) =   1
                l(4) =   1
     Q(r) pseudized with 0 coefficients 


     PseudoPot. # 2 for V  read from file:
     ./pseudo/v_pbesol_v1.4.uspp.F.UPF
     MD5 check sum: 72fa7d0034c41d8adc50bbc8c632b9f9
     Pseudo is Ultrasoft + core correction, Zval = 13.0
     Generated by new atomic code, or converted to UPF format
     Using radial grid of  853 points,  6 beta functions with: 
                l(1) =   0
                l(2) =   0
                l(3) =   1
                l(4) =   1
                l(5) =   2
                l(6) =   2
     Q(r) pseudized with  8 coefficients,  rinner =    1.100   1.100   1.100
                                                       1.100   1.100

     atomic species   valence    mass     pseudopotential
        C              4.00    12.01070     C ( 1.00)
        V             13.00    50.94150     V ( 1.00)

     Starting magnetic structure 
     atomic species   magnetization
        C            0.100
        V            0.385

     48 Sym. Ops., with inversion, found


                                    s                        frac. trans.

      isym =  1     identity                                     

 cryst.   s( 1) = (     1          0          0      )
                  (     0          1          0      )
                  (     0          0          1      )

 cart.    s( 1) = (  1.0000000  0.0000000  0.0000000 )
                  (  0.0000000  1.0000000  0.0000000 )
                  (  0.0000000  0.0000000  1.0000000 )


      isym =  2     180 deg rotation - cart. axis [0,0,1]        

 cryst.   s( 2) = (    -1          0          0      )
                  (     0         -1          0      )
                  (     0          0          1      )

 cart.    s( 2) = ( -1.0000000  0.0000000  0.0000000 )
                  (  0.0000000 -1.0000000  0.0000000 )
                  (  0.0000000  0.0000000  1.0000000 )


      isym =  3     180 deg rotation - cart. axis [0,1,0]        

 cryst.   s( 3) = (    -1          0          0      )
                  (     0          1          0      )
                  (     0          0         -1      )

 cart.    s( 3) = ( -1.0000000  0.0000000  0.0000000 )
                  (  0.0000000  1.0000000  0.0000000 )
                  (  0.0000000  0.0000000 -1.0000000 )


      isym =  4     180 deg rotation - cart. axis [1,0,0]        

 cryst.   s( 4) = (     1          0          0      )
                  (     0         -1          0      )
                  (     0          0         -1      )

 cart.    s( 4) = (  1.0000000  0.0000000  0.0000000 )
                  (  0.0000000 -1.0000000  0.0000000 )
                  (  0.0000000  0.0000000 -1.0000000 )


      isym =  5     180 deg rotation - cart. axis [1,1,0]        

 cryst.   s( 5) = (     0          1          0      )
                  (     1          0          0      )
                  (     0          0         -1      )

 cart.    s( 5) = (  0.0000000  1.0000000  0.0000000 )
                  (  1.0000000  0.0000000  0.0000000 )
                  (  0.0000000  0.0000000 -1.0000000 )


      isym =  6     180 deg rotation - cart. axis [1,-1,0]       

 cryst.   s( 6) = (     0         -1          0      )
                  (    -1          0          0      )
                  (     0          0         -1      )

 cart.    s( 6) = (  0.0000000 -1.0000000  0.0000000 )
                  ( -1.0000000  0.0000000  0.0000000 )
                  (  0.0000000  0.0000000 -1.0000000 )


      isym =  7      90 deg rotation - cart. axis [0,0,-1]       

 cryst.   s( 7) = (     0         -1          0      )
                  (     1          0          0      )
                  (     0          0          1      )

 cart.    s( 7) = (  0.0000000  1.0000000  0.0000000 )
                  ( -1.0000000  0.0000000  0.0000000 )
                  (  0.0000000  0.0000000  1.0000000 )


      isym =  8      90 deg rotation - cart. axis [0,0,1]        

 cryst.   s( 8) = (     0          1          0      )
                  (    -1          0          0      )
                  (     0          0          1      )

 cart.    s( 8) = (  0.0000000 -1.0000000  0.0000000 )
                  (  1.0000000  0.0000000  0.0000000 )
                  (  0.0000000  0.0000000  1.0000000 )


      isym =  9     180 deg rotation - cart. axis [1,0,1]        

 cryst.   s( 9) = (     0          0          1      )
                  (     0         -1          0      )
                  (     1          0          0      )

 cart.    s( 9) = (  0.0000000  0.0000000  1.0000000 )
                  (  0.0000000 -1.0000000  0.0000000 )
                  (  1.0000000  0.0000000  0.0000000 )


      isym = 10     180 deg rotation - cart. axis [-1,0,1]       

 cryst.   s(10) = (     0          0         -1      )
                  (     0         -1          0      )
                  (    -1          0          0      )

 cart.    s(10) = (  0.0000000  0.0000000 -1.0000000 )
                  (  0.0000000 -1.0000000  0.0000000 )
                  ( -1.0000000  0.0000000  0.0000000 )


      isym = 11      90 deg rotation - cart. axis [0,1,0]        

 cryst.   s(11) = (     0          0         -1      )
                  (     0          1          0      )
                  (     1          0          0      )

 cart.    s(11) = (  0.0000000  0.0000000  1.0000000 )
                  (  0.0000000  1.0000000  0.0000000 )
                  ( -1.0000000  0.0000000  0.0000000 )


      isym = 12      90 deg rotation - cart. axis [0,-1,0]       

 cryst.   s(12) = (     0          0          1      )
                  (     0          1          0      )
                  (    -1          0          0      )

 cart.    s(12) = (  0.0000000  0.0000000 -1.0000000 )
                  (  0.0000000  1.0000000  0.0000000 )
                  (  1.0000000  0.0000000  0.0000000 )


      isym = 13     180 deg rotation - cart. axis [0,1,1]        

 cryst.   s(13) = (    -1          0          0      )
                  (     0          0          1      )
                  (     0          1          0      )

 cart.    s(13) = ( -1.0000000  0.0000000  0.0000000 )
                  (  0.0000000  0.0000000  1.0000000 )
                  (  0.0000000  1.0000000  0.0000000 )


      isym = 14     180 deg rotation - cart. axis [0,1,-1]       

 cryst.   s(14) = (    -1          0          0      )
                  (     0          0         -1      )
                  (     0         -1          0      )

 cart.    s(14) = ( -1.0000000  0.0000000  0.0000000 )
                  (  0.0000000  0.0000000 -1.0000000 )
                  (  0.0000000 -1.0000000  0.0000000 )


      isym = 15      90 deg rotation - cart. axis [-1,0,0]       

 cryst.   s(15) = (     1          0          0      )
                  (     0          0         -1      )
                  (     0          1          0      )

 cart.    s(15) = (  1.0000000  0.0000000  0.0000000 )
                  (  0.0000000  0.0000000  1.0000000 )
                  (  0.0000000 -1.0000000  0.0000000 )


      isym = 16      90 deg rotation - cart. axis [1,0,0]        

 cryst.   s(16) = (     1          0          0      )
                  (     0          0          1      )
                  (     0         -1          0      )

 cart.    s(16) = (  1.0000000  0.0000000  0.0000000 )
                  (  0.0000000  0.0000000 -1.0000000 )
                  (  0.0000000  1.0000000  0.0000000 )


      isym = 17     120 deg rotation - cart. axis [-1,-1,-1]     

 cryst.   s(17) = (     0          0          1      )
                  (     1          0          0      )
                  (     0          1          0      )

 cart.    s(17) = (  0.0000000  1.0000000  0.0000000 )
                  (  0.0000000  0.0000000  1.0000000 )
                  (  1.0000000  0.0000000  0.0000000 )


      isym = 18     120 deg rotation - cart. axis [-1,1,1]       

 cryst.   s(18) = (     0          0         -1      )
                  (    -1          0          0      )
                  (     0          1          0      )

 cart.    s(18) = (  0.0000000 -1.0000000  0.0000000 )
                  (  0.0000000  0.0000000  1.0000000 )
                  ( -1.0000000  0.0000000  0.0000000 )


      isym = 19     120 deg rotation - cart. axis [1,1,-1]       

 cryst.   s(19) = (     0          0         -1      )
                  (     1          0          0      )
                  (     0         -1          0      )

 cart.    s(19) = (  0.0000000  1.0000000  0.0000000 )
                  (  0.0000000  0.0000000 -1.0000000 )
                  ( -1.0000000  0.0000000  0.0000000 )


      isym = 20     120 deg rotation - cart. axis [1,-1,1]       

 cryst.   s(20) = (     0          0          1      )
                  (    -1          0          0      )
                  (     0         -1          0      )

 cart.    s(20) = (  0.0000000 -1.0000000  0.0000000 )
                  (  0.0000000  0.0000000 -1.0000000 )
                  (  1.0000000  0.0000000  0.0000000 )


      isym = 21     120 deg rotation - cart. axis [1,1,1]        

 cryst.   s(21) = (     0          1          0      )
                  (     0          0          1      )
                  (     1          0          0      )

 cart.    s(21) = (  0.0000000  0.0000000  1.0000000 )
                  (  1.0000000  0.0000000  0.0000000 )
                  (  0.0000000  1.0000000  0.0000000 )


      isym = 22     120 deg rotation - cart. axis [-1,1,-1]      

 cryst.   s(22) = (     0         -1          0      )
                  (     0          0         -1      )
                  (     1          0          0      )

 cart.    s(22) = (  0.0000000  0.0000000  1.0000000 )
                  ( -1.0000000  0.0000000  0.0000000 )
                  (  0.0000000 -1.0000000  0.0000000 )


      isym = 23     120 deg rotation - cart. axis [1,-1,-1]      

 cryst.   s(23) = (     0         -1          0      )
                  (     0          0          1      )
                  (    -1          0          0      )

 cart.    s(23) = (  0.0000000  0.0000000 -1.0000000 )
                  ( -1.0000000  0.0000000  0.0000000 )
                  (  0.0000000  1.0000000  0.0000000 )


      isym = 24     120 deg rotation - cart. axis [-1,-1,1]      

 cryst.   s(24) = (     0          1          0      )
                  (     0          0         -1      )
                  (    -1          0          0      )

 cart.    s(24) = (  0.0000000  0.0000000 -1.0000000 )
                  (  1.0000000  0.0000000  0.0000000 )
                  (  0.0000000 -1.0000000  0.0000000 )


      isym = 25     inversion                                    

 cryst.   s(25) = (    -1          0          0      )
                  (     0         -1          0      )
                  (     0          0         -1      )

 cart.    s(25) = ( -1.0000000  0.0000000  0.0000000 )
                  (  0.0000000 -1.0000000  0.0000000 )
                  (  0.0000000  0.0000000 -1.0000000 )


      isym = 26     inv. 180 deg rotation - cart. axis [0,0,1]   

 cryst.   s(26) = (     1          0          0      )
                  (     0          1          0      )
                  (     0          0         -1      )

 cart.    s(26) = (  1.0000000  0.0000000  0.0000000 )
                  (  0.0000000  1.0000000  0.0000000 )
                  (  0.0000000  0.0000000 -1.0000000 )


      isym = 27     inv. 180 deg rotation - cart. axis [0,1,0]   

 cryst.   s(27) = (     1          0          0      )
                  (     0         -1          0      )
                  (     0          0          1      )

 cart.    s(27) = (  1.0000000  0.0000000  0.0000000 )
                  (  0.0000000 -1.0000000  0.0000000 )
                  (  0.0000000  0.0000000  1.0000000 )


      isym = 28     inv. 180 deg rotation - cart. axis [1,0,0]   

 cryst.   s(28) = (    -1          0          0      )
                  (     0          1          0      )
                  (     0          0          1      )

 cart.    s(28) = ( -1.0000000  0.0000000  0.0000000 )
                  (  0.0000000  1.0000000  0.0000000 )
                  (  0.0000000  0.0000000  1.0000000 )


      isym = 29     inv. 180 deg rotation - cart. axis [1,1,0]   

 cryst.   s(29) = (     0         -1          0      )
                  (    -1          0          0      )
                  (     0          0          1      )

 cart.    s(29) = (  0.0000000 -1.0000000  0.0000000 )
                  ( -1.0000000  0.0000000  0.0000000 )
                  (  0.0000000  0.0000000  1.0000000 )


      isym = 30     inv. 180 deg rotation - cart. axis [1,-1,0]  

 cryst.   s(30) = (     0          1          0      )
                  (     1          0          0      )
                  (     0          0          1      )

 cart.    s(30) = (  0.0000000  1.0000000  0.0000000 )
                  (  1.0000000  0.0000000  0.0000000 )
                  (  0.0000000  0.0000000  1.0000000 )


      isym = 31     inv.  90 deg rotation - cart. axis [0,0,-1]  

 cryst.   s(31) = (     0          1          0      )
                  (    -1          0          0      )
                  (     0          0         -1      )

 cart.    s(31) = (  0.0000000 -1.0000000  0.0000000 )
                  (  1.0000000  0.0000000  0.0000000 )
                  (  0.0000000  0.0000000 -1.0000000 )


      isym = 32     inv.  90 deg rotation - cart. axis [0,0,1]   

 cryst.   s(32) = (     0         -1          0      )
                  (     1          0          0      )
                  (     0          0         -1      )

 cart.    s(32) = (  0.0000000  1.0000000  0.0000000 )
                  ( -1.0000000  0.0000000  0.0000000 )
                  (  0.0000000  0.0000000 -1.0000000 )


      isym = 33     inv. 180 deg rotation - cart. axis [1,0,1]   

 cryst.   s(33) = (     0          0         -1      )
                  (     0          1          0      )
                  (    -1          0          0      )

 cart.    s(33) = (  0.0000000  0.0000000 -1.0000000 )
                  (  0.0000000  1.0000000  0.0000000 )
                  ( -1.0000000  0.0000000  0.0000000 )


      isym = 34     inv. 180 deg rotation - cart. axis [-1,0,1]  

 cryst.   s(34) = (     0          0          1      )
                  (     0          1          0      )
                  (     1          0          0      )

 cart.    s(34) = (  0.0000000  0.0000000  1.0000000 )
                  (  0.0000000  1.0000000  0.0000000 )
                  (  1.0000000  0.0000000  0.0000000 )


      isym = 35     inv.  90 deg rotation - cart. axis [0,1,0]   

 cryst.   s(35) = (     0          0          1      )
                  (     0         -1          0      )
                  (    -1          0          0      )

 cart.    s(35) = (  0.0000000  0.0000000 -1.0000000 )
                  (  0.0000000 -1.0000000  0.0000000 )
                  (  1.0000000  0.0000000  0.0000000 )


      isym = 36     inv.  90 deg rotation - cart. axis [0,-1,0]  

 cryst.   s(36) = (     0          0         -1      )
                  (     0         -1          0      )
                  (     1          0          0      )

 cart.    s(36) = (  0.0000000  0.0000000  1.0000000 )
                  (  0.0000000 -1.0000000  0.0000000 )
                  ( -1.0000000  0.0000000  0.0000000 )


      isym = 37     inv. 180 deg rotation - cart. axis [0,1,1]   

 cryst.   s(37) = (     1          0          0      )
                  (     0          0         -1      )
                  (     0         -1          0      )

 cart.    s(37) = (  1.0000000  0.0000000  0.0000000 )
                  (  0.0000000  0.0000000 -1.0000000 )
                  (  0.0000000 -1.0000000  0.0000000 )


      isym = 38     inv. 180 deg rotation - cart. axis [0,1,-1]  

 cryst.   s(38) = (     1          0          0      )
                  (     0          0          1      )
                  (     0          1          0      )

 cart.    s(38) = (  1.0000000  0.0000000  0.0000000 )
                  (  0.0000000  0.0000000  1.0000000 )
                  (  0.0000000  1.0000000  0.0000000 )


      isym = 39     inv.  90 deg rotation - cart. axis [-1,0,0]  

 cryst.   s(39) = (    -1          0          0      )
                  (     0          0          1      )
                  (     0         -1          0      )

 cart.    s(39) = ( -1.0000000  0.0000000  0.0000000 )
                  (  0.0000000  0.0000000 -1.0000000 )
                  (  0.0000000  1.0000000  0.0000000 )


      isym = 40     inv.  90 deg rotation - cart. axis [1,0,0]   

 cryst.   s(40) = (    -1          0          0      )
                  (     0          0         -1      )
                  (     0          1          0      )

 cart.    s(40) = ( -1.0000000  0.0000000  0.0000000 )
                  (  0.0000000  0.0000000  1.0000000 )
                  (  0.0000000 -1.0000000  0.0000000 )


      isym = 41     inv. 120 deg rotation - cart. axis [-1,-1,-1]

 cryst.   s(41) = (     0          0         -1      )
                  (    -1          0          0      )
                  (     0         -1          0      )

 cart.    s(41) = (  0.0000000 -1.0000000  0.0000000 )
                  (  0.0000000  0.0000000 -1.0000000 )
                  ( -1.0000000  0.0000000  0.0000000 )


      isym = 42     inv. 120 deg rotation - cart. axis [-1,1,1]  

 cryst.   s(42) = (     0          0          1      )
                  (     1          0          0      )
                  (     0         -1          0      )

 cart.    s(42) = (  0.0000000  1.0000000  0.0000000 )
                  (  0.0000000  0.0000000 -1.0000000 )
                  (  1.0000000  0.0000000  0.0000000 )


      isym = 43     inv. 120 deg rotation - cart. axis [1,1,-1]  

 cryst.   s(43) = (     0          0          1      )
                  (    -1          0          0      )
                  (     0          1          0      )

 cart.    s(43) = (  0.0000000 -1.0000000  0.0000000 )
                  (  0.0000000  0.0000000  1.0000000 )
                  (  1.0000000  0.0000000  0.0000000 )


      isym = 44     inv. 120 deg rotation - cart. axis [1,-1,1]  

 cryst.   s(44) = (     0          0         -1      )
                  (     1          0          0      )
                  (     0          1          0      )

 cart.    s(44) = (  0.0000000  1.0000000  0.0000000 )
                  (  0.0000000  0.0000000  1.0000000 )
                  ( -1.0000000  0.0000000  0.0000000 )


      isym = 45     inv. 120 deg rotation - cart. axis [1,1,1]   

 cryst.   s(45) = (     0         -1          0      )
                  (     0          0         -1      )
                  (    -1          0          0      )

 cart.    s(45) = (  0.0000000  0.0000000 -1.0000000 )
                  ( -1.0000000  0.0000000  0.0000000 )
                  (  0.0000000 -1.0000000  0.0000000 )


      isym = 46     inv. 120 deg rotation - cart. axis [-1,1,-1] 

 cryst.   s(46) = (     0          1          0      )
                  (     0          0          1      )
                  (    -1          0          0      )

 cart.    s(46) = (  0.0000000  0.0000000 -1.0000000 )
                  (  1.0000000  0.0000000  0.0000000 )
                  (  0.0000000  1.0000000  0.0000000 )


      isym = 47     inv. 120 deg rotation - cart. axis [1,-1,-1] 

 cryst.   s(47) = (     0          1          0      )
                  (     0          0         -1      )
                  (     1          0          0      )

 cart.    s(47) = (  0.0000000  0.0000000  1.0000000 )
                  (  1.0000000  0.0000000  0.0000000 )
                  (  0.0000000 -1.0000000  0.0000000 )


      isym = 48     inv. 120 deg rotation - cart. axis [-1,-1,1] 

 cryst.   s(48) = (     0         -1          0      )
                  (     0          0          1      )
                  (     1          0          0      )

 cart.    s(48) = (  0.0000000  0.0000000  1.0000000 )
                  ( -1.0000000  0.0000000  0.0000000 )
                  (  0.0000000  1.0000000  0.0000000 )


   Cartesian axes

     site n.     atom                  positions (alat units)
         1           V   tau(   1) = (   0.0000000   0.0000000   0.0000000  )
         2           C   tau(   2) = (   0.0000000   0.5000000   0.5000000  )
         3           C   tau(   3) = (   0.5000000   0.0000000   0.5000000  )
         4           C   tau(   4) = (   0.5000000   0.5000000   0.0000000  )

   Crystallographic axes

     site n.     atom                  positions (cryst. coord.)
         1           V   tau(   1) = (  0.0000000  0.0000000  0.0000000  )
         2           C   tau(   2) = (  0.0000000  0.5000000  0.5000000  )
         3           C   tau(   3) = (  0.5000000  0.0000000  0.5000000  )
         4           C   tau(   4) = (  0.5000000  0.5000000  0.0000000  )

     number of k points=    20  Marzari-Vanderbilt smearing, width (Ry)=  0.0100
                       cart. coord. in units 2pi/alat
        k(    1) = (   0.0000000   0.0000000   0.0000000), wk =   0.0046296
        k(    2) = (   0.0000000   0.0000000   0.1666667), wk =   0.0277778
        k(    3) = (   0.0000000   0.0000000   0.3333333), wk =   0.0277778
        k(    4) = (   0.0000000   0.0000000  -0.5000000), wk =   0.0138889
        k(    5) = (   0.0000000   0.1666667   0.1666667), wk =   0.0555556
        k(    6) = (   0.0000000   0.1666667   0.3333333), wk =   0.1111111
        k(    7) = (   0.0000000   0.1666667  -0.5000000), wk =   0.0555556
        k(    8) = (   0.0000000   0.3333333   0.3333333), wk =   0.0555556
        k(    9) = (   0.0000000   0.3333333  -0.5000000), wk =   0.0555556
        k(   10) = (   0.0000000  -0.5000000  -0.5000000), wk =   0.0138889
        k(   11) = (   0.1666667   0.1666667   0.1666667), wk =   0.0370370
        k(   12) = (   0.1666667   0.1666667   0.3333333), wk =   0.1111111
        k(   13) = (   0.1666667   0.1666667  -0.5000000), wk =   0.0555556
        k(   14) = (   0.1666667   0.3333333   0.3333333), wk =   0.1111111
        k(   15) = (   0.1666667   0.3333333  -0.5000000), wk =   0.1111111
        k(   16) = (   0.1666667  -0.5000000  -0.5000000), wk =   0.0277778
        k(   17) = (   0.3333333   0.3333333   0.3333333), wk =   0.0370370
        k(   18) = (   0.3333333   0.3333333  -0.5000000), wk =   0.0555556
        k(   19) = (   0.3333333  -0.5000000  -0.5000000), wk =   0.0277778
        k(   20) = (  -0.5000000  -0.5000000  -0.5000000), wk =   0.0046296

                       cryst. coord.
        k(    1) = (   0.0000000   0.0000000   0.0000000), wk =   0.0046296
        k(    2) = (   0.0000000   0.0000000   0.1666667), wk =   0.0277778
        k(    3) = (   0.0000000   0.0000000   0.3333333), wk =   0.0277778
        k(    4) = (   0.0000000   0.0000000  -0.5000000), wk =   0.0138889
        k(    5) = (   0.0000000   0.1666667   0.1666667), wk =   0.0555556
        k(    6) = (   0.0000000   0.1666667   0.3333333), wk =   0.1111111
        k(    7) = (   0.0000000   0.1666667  -0.5000000), wk =   0.0555556
        k(    8) = (   0.0000000   0.3333333   0.3333333), wk =   0.0555556
        k(    9) = (   0.0000000   0.3333333  -0.5000000), wk =   0.0555556
        k(   10) = (   0.0000000  -0.5000000  -0.5000000), wk =   0.0138889
        k(   11) = (   0.1666667   0.1666667   0.1666667), wk =   0.0370370
        k(   12) = (   0.1666667   0.1666667   0.3333333), wk =   0.1111111
        k(   13) = (   0.1666667   0.1666667  -0.5000000), wk =   0.0555556
        k(   14) = (   0.1666667   0.3333333   0.3333333), wk =   0.1111111
        k(   15) = (   0.1666667   0.3333333  -0.5000000), wk =   0.1111111
        k(   16) = (   0.1666667  -0.5000000  -0.5000000), wk =   0.0277778
        k(   17) = (   0.3333333   0.3333333   0.3333333), wk =   0.0370370
        k(   18) = (   0.3333333   0.3333333  -0.5000000), wk =   0.0555556
        k(   19) = (   0.3333333  -0.5000000  -0.5000000), wk =   0.0277778
        k(   20) = (  -0.5000000  -0.5000000  -0.5000000), wk =   0.0046296

     Dense  grid:   272489 G-vectors     FFT dimensions: (  81,  81,  81)

     Smooth grid:    96177 G-vectors     FFT dimensions: (  60,  60,  60)

     Dynamical RAM for                 wfc:       3.12 MB

     Dynamical RAM for     wfc (w. buffer):     128.11 MB

     Dynamical RAM for           str. fact:       8.32 MB

     Dynamical RAM for           local pot:       0.00 MB

     Dynamical RAM for          nlocal pot:       7.72 MB

     Dynamical RAM for                qrad:       3.05 MB

     Dynamical RAM for          rho,v,vnew:      49.27 MB

     Dynamical RAM for               rhoin:      16.42 MB

     Dynamical RAM for            rho*nmix:     133.05 MB

     Dynamical RAM for           G-vectors:      16.33 MB

     Dynamical RAM for          h,s,v(r/c):       0.05 MB

     Dynamical RAM for          <psi|beta>:       0.01 MB

     Dynamical RAM for                 psi:       6.25 MB

     Dynamical RAM for                hpsi:       6.25 MB

     Dynamical RAM for                spsi:       6.25 MB

     Dynamical RAM for      wfcinit/wfcrot:       6.26 MB

     Dynamical RAM for           addusdens:     789.99 MB

     Dynamical RAM for          addusforce:     806.65 MB

     Dynamical RAM for         addusstress:     841.97 MB

     Estimated static dynamical RAM per process >     266.02 MB

     Estimated max dynamical RAM per process >       1.21 GB

     Atomic positions and unit cell read from directory:
     ./out/aiida.save/
 

     Check: negative core charge=   -0.000004
     Generating pointlists ...
     new r_m :   0.2917 (alat units)  3.8851 (a.u.) for type    1
     new r_m :   0.2917 (alat units)  3.8851 (a.u.) for type    2

     The initial density is read from file :
     ./out/aiida.save/charge-density


     starting charge      25.0003, renormalised to      25.0000

     negative rho (up, down):  6.193E-04 4.687E-05
     Starting wfcs from file
     Checking if some PAW data can be deallocated... 

     total cpu time spent up to now is        2.9 secs

     per-process dynamical memory:   516.8 Mb

     Self-consistent Calculation
[tb_dev] Currently allocated     3.05E-05 Mbytes, locked:    0 /   2
[tb_pin] Currently allocated     0.00E+00 Mbytes, locked:    0 /   0

     iteration #  1     ecut=    45.00 Ry     beta= 0.20
     Davidson diagonalization with overlap

---- Real-time Memory Report at c_bands before calling an iterative solver
           712 MiB given to the printing process from OS
           513 MiB allocation reported by mallinfo(arena+hblkhd)
         58903 MiB available memory on the node where the printing process lives
     GPU memory used/free/total (MiB): 812 / 15468 / 16280
------------------
     c_bands:  3 eigenvalues not converged
     c_bands:  2 eigenvalues not converged
     c_bands:  2 eigenvalues not converged
     c_bands:  1 eigenvalues not converged
     c_bands:  1 eigenvalues not converged
     c_bands:  1 eigenvalues not converged
     c_bands:  2 eigenvalues not converged
     c_bands:  3 eigenvalues not converged
     c_bands:  1 eigenvalues not converged
     c_bands:  2 eigenvalues not converged
     c_bands:  1 eigenvalues not converged
     c_bands:  1 eigenvalues not converged
     c_bands:  1 eigenvalues not converged
     c_bands:  3 eigenvalues not converged
     c_bands:  4 eigenvalues not converged
     c_bands:  4 eigenvalues not converged
     c_bands:  5 eigenvalues not converged
     c_bands:  5 eigenvalues not converged
     c_bands:  1 eigenvalues not converged
     c_bands:  2 eigenvalues not converged
     c_bands:  2 eigenvalues not converged
     c_bands:  2 eigenvalues not converged
     ethr =  1.00E-05,  avg # of iterations = 16.3

     negative rho (up, down):  7.148E-04 2.212E-04

     total cpu time spent up to now is        6.9 secs

     total energy              =    -195.10703791 Ry
     estimated scf accuracy    <       5.69742196 Ry

     total magnetization       =     1.06 Bohr mag/cell
     absolute magnetization    =     6.04 Bohr mag/cell
[tb_dev] Currently allocated     5.06E+00 Mbytes, locked:    0 /   8
[tb_pin] Currently allocated     0.00E+00 Mbytes, locked:    0 /   0

     iteration #  2     ecut=    45.00 Ry     beta= 0.20
     Davidson diagonalization with overlap

---- Real-time Memory Report at c_bands before calling an iterative solver
          1304 MiB given to the printing process from OS
           983 MiB allocation reported by mallinfo(arena+hblkhd)
         57866 MiB available memory on the node where the printing process lives
     GPU memory used/free/total (MiB): 2184 / 14096 / 16280
------------------
     ethr =  1.00E-02,  avg # of iterations =  4.8

     negative rho (up, down):  6.352E-04 9.955E-05

     total cpu time spent up to now is        8.5 secs

     total energy              =    -197.28425548 Ry
     estimated scf accuracy    <      20.52861030 Ry

     total magnetization       =    -0.70 Bohr mag/cell
     absolute magnetization    =     3.15 Bohr mag/cell
[tb_dev] Currently allocated     5.06E+00 Mbytes, locked:    0 /   8
[tb_pin] Currently allocated     0.00E+00 Mbytes, locked:    0 /   0

     iteration #  3     ecut=    45.00 Ry     beta= 0.20
     Davidson diagonalization with overlap

---- Real-time Memory Report at c_bands before calling an iterative solver
          1385 MiB given to the printing process from OS
          1000 MiB allocation reported by mallinfo(arena+hblkhd)
         57844 MiB available memory on the node where the printing process lives
     GPU memory used/free/total (MiB): 2184 / 14096 / 16280
------------------
     ethr =  1.00E-02,  avg # of iterations =  1.9

     negative rho (up, down):  6.192E-04 7.834E-05

     total cpu time spent up to now is        9.8 secs

     total energy              =    -196.81560337 Ry
     estimated scf accuracy    <      13.76390754 Ry

     total magnetization       =    -1.48 Bohr mag/cell
     absolute magnetization    =     3.28 Bohr mag/cell
[tb_dev] Currently allocated     5.06E+00 Mbytes, locked:    0 /   8
[tb_pin] Currently allocated     0.00E+00 Mbytes, locked:    0 /   0

     iteration #  4     ecut=    45.00 Ry     beta= 0.20
     Davidson diagonalization with overlap

---- Real-time Memory Report at c_bands before calling an iterative solver
          1463 MiB given to the printing process from OS
          1012 MiB allocation reported by mallinfo(arena+hblkhd)
         57834 MiB available memory on the node where the printing process lives
     GPU memory used/free/total (MiB): 2184 / 14096 / 16280
------------------
     ethr =  1.00E-02,  avg # of iterations =  1.0

     negative rho (up, down):  6.177E-04 7.943E-05

     total cpu time spent up to now is       11.0 secs

     total energy              =    -196.93107408 Ry
     estimated scf accuracy    <       1.68472008 Ry

     total magnetization       =    -3.53 Bohr mag/cell
     absolute magnetization    =     8.22 Bohr mag/cell
[tb_dev] Currently allocated     5.06E+00 Mbytes, locked:    0 /   8
[tb_pin] Currently allocated     0.00E+00 Mbytes, locked:    0 /   0

     iteration #  5     ecut=    45.00 Ry     beta= 0.20
     Davidson diagonalization with overlap

---- Real-time Memory Report at c_bands before calling an iterative solver
          1540 MiB given to the printing process from OS
          1026 MiB allocation reported by mallinfo(arena+hblkhd)
         57819 MiB available memory on the node where the printing process lives
     GPU memory used/free/total (MiB): 2184 / 14096 / 16280
------------------
     ethr =  6.74E-03,  avg # of iterations =  1.0

     negative rho (up, down):  6.162E-04 7.704E-05

     total cpu time spent up to now is       12.2 secs

     total energy              =    -196.92691098 Ry
     estimated scf accuracy    <       1.63261921 Ry

     total magnetization       =    -3.45 Bohr mag/cell
     absolute magnetization    =     8.24 Bohr mag/cell
[tb_dev] Currently allocated     5.06E+00 Mbytes, locked:    0 /   8
[tb_pin] Currently allocated     0.00E+00 Mbytes, locked:    0 /   0

     iteration #  6     ecut=    45.00 Ry     beta= 0.20
     Davidson diagonalization with overlap

---- Real-time Memory Report at c_bands before calling an iterative solver
          1620 MiB given to the printing process from OS
          1040 MiB allocation reported by mallinfo(arena+hblkhd)
         57806 MiB available memory on the node where the printing process lives
     GPU memory used/free/total (MiB): 2184 / 14096 / 16280
------------------
     ethr =  6.53E-03,  avg # of iterations =  1.0

     negative rho (up, down):  6.183E-04 8.388E-05

     total cpu time spent up to now is       13.4 secs

     total energy              =    -196.95287274 Ry
     estimated scf accuracy    <       1.48422206 Ry

     total magnetization       =    -3.45 Bohr mag/cell
     absolute magnetization    =     8.33 Bohr mag/cell
[tb_dev] Currently allocated     5.06E+00 Mbytes, locked:    0 /   8
[tb_pin] Currently allocated     0.00E+00 Mbytes, locked:    0 /   0

     iteration #  7     ecut=    45.00 Ry     beta= 0.20
     Davidson diagonalization with overlap

---- Real-time Memory Report at c_bands before calling an iterative solver
          1696 MiB given to the printing process from OS
          1052 MiB allocation reported by mallinfo(arena+hblkhd)
         57794 MiB available memory on the node where the printing process lives
     GPU memory used/free/total (MiB): 2184 / 14096 / 16280
------------------
     ethr =  5.94E-03,  avg # of iterations =  1.0

     negative rho (up, down):  6.097E-04 6.518E-05

     total cpu time spent up to now is       14.6 secs

     total energy              =    -196.88890835 Ry
     estimated scf accuracy    <       1.72925664 Ry

     total magnetization       =    -3.26 Bohr mag/cell
     absolute magnetization    =     8.12 Bohr mag/cell
[tb_dev] Currently allocated     5.06E+00 Mbytes, locked:    0 /   8
[tb_pin] Currently allocated     0.00E+00 Mbytes, locked:    0 /   0

     iteration #  8     ecut=    45.00 Ry     beta= 0.20
     Davidson diagonalization with overlap

---- Real-time Memory Report at c_bands before calling an iterative solver
          1754 MiB given to the printing process from OS
          1066 MiB allocation reported by mallinfo(arena+hblkhd)
         57780 MiB available memory on the node where the printing process lives
     GPU memory used/free/total (MiB): 2184 / 14096 / 16280
------------------
     ethr =  5.94E-03,  avg # of iterations =  1.0

     negative rho (up, down):  6.079E-04 6.185E-05

     total cpu time spent up to now is       15.8 secs

     total energy              =    -196.88679087 Ry
     estimated scf accuracy    <       1.50923740 Ry

     total magnetization       =    -3.85 Bohr mag/cell
     absolute magnetization    =     8.51 Bohr mag/cell
[tb_dev] Currently allocated     5.06E+00 Mbytes, locked:    0 /   8
[tb_pin] Currently allocated     0.00E+00 Mbytes, locked:    0 /   0

     iteration #  9     ecut=    45.00 Ry     beta= 0.20
     Davidson diagonalization with overlap

---- Real-time Memory Report at c_bands before calling an iterative solver
          1798 MiB given to the printing process from OS
          1080 MiB allocation reported by mallinfo(arena+hblkhd)
         57765 MiB available memory on the node where the printing process lives
     GPU memory used/free/total (MiB): 2184 / 14096 / 16280
------------------
     ethr =  5.94E-03,  avg # of iterations =  1.0

     negative rho (up, down):  6.055E-04 3.661E-05

     total cpu time spent up to now is       17.0 secs

     total energy              =    -196.78101521 Ry
     estimated scf accuracy    <       0.91030190 Ry

     total magnetization       =    -3.54 Bohr mag/cell
     absolute magnetization    =     8.34 Bohr mag/cell
[tb_dev] Currently allocated     5.06E+00 Mbytes, locked:    0 /   8
[tb_pin] Currently allocated     0.00E+00 Mbytes, locked:    0 /   0

     iteration # 10     ecut=    45.00 Ry     beta= 0.20
     Davidson diagonalization with overlap

---- Real-time Memory Report at c_bands before calling an iterative solver
          1837 MiB given to the printing process from OS
          1092 MiB allocation reported by mallinfo(arena+hblkhd)
         57755 MiB available memory on the node where the printing process lives
     GPU memory used/free/total (MiB): 2184 / 14096 / 16280
------------------
     ethr =  3.64E-03,  avg # of iterations =  1.3

     negative rho (up, down):  6.096E-04 5.861E-05

     total cpu time spent up to now is       18.3 secs

     total energy              =    -196.76873150 Ry
     estimated scf accuracy    <       6.50744799 Ry

     total magnetization       =     0.92 Bohr mag/cell
     absolute magnetization    =     5.29 Bohr mag/cell
[tb_dev] Currently allocated     5.06E+00 Mbytes, locked:    0 /   8
[tb_pin] Currently allocated     0.00E+00 Mbytes, locked:    0 /   0

     iteration # 11     ecut=    45.00 Ry     beta= 0.20
     Davidson diagonalization with overlap

---- Real-time Memory Report at c_bands before calling an iterative solver
          1864 MiB given to the printing process from OS
          1097 MiB allocation reported by mallinfo(arena+hblkhd)
         57748 MiB available memory on the node where the printing process lives
     GPU memory used/free/total (MiB): 2184 / 14096 / 16280
------------------
     ethr =  3.64E-03,  avg # of iterations =  1.0

     negative rho (up, down):  5.947E-04 3.531E-05

     total cpu time spent up to now is       19.5 secs

     total energy              =    -196.83526437 Ry
     estimated scf accuracy    <       0.35751230 Ry

     total magnetization       =    -3.12 Bohr mag/cell
     absolute magnetization    =     8.07 Bohr mag/cell
[tb_dev] Currently allocated     5.06E+00 Mbytes, locked:    0 /   8
[tb_pin] Currently allocated     0.00E+00 Mbytes, locked:    0 /   0

     iteration # 12     ecut=    45.00 Ry     beta= 0.20
     Davidson diagonalization with overlap

---- Real-time Memory Report at c_bands before calling an iterative solver
          1888 MiB given to the printing process from OS
          1103 MiB allocation reported by mallinfo(arena+hblkhd)
         57743 MiB available memory on the node where the printing process lives
     GPU memory used/free/total (MiB): 2184 / 14096 / 16280
------------------
     ethr =  1.43E-03,  avg # of iterations =  1.1

     negative rho (up, down):  6.008E-04 2.333E-05

     total cpu time spent up to now is       20.7 secs

     total energy              =    -196.99871431 Ry
     estimated scf accuracy    <       3.69128904 Ry

     total magnetization       =     0.65 Bohr mag/cell
     absolute magnetization    =     6.64 Bohr mag/cell
[tb_dev] Currently allocated     5.06E+00 Mbytes, locked:    0 /   8
[tb_pin] Currently allocated     0.00E+00 Mbytes, locked:    0 /   0

     iteration # 13     ecut=    45.00 Ry     beta= 0.20
     Davidson diagonalization with overlap

---- Real-time Memory Report at c_bands before calling an iterative solver
          1915 MiB given to the printing process from OS
          1108 MiB allocation reported by mallinfo(arena+hblkhd)
         57738 MiB available memory on the node where the printing process lives
     GPU memory used/free/total (MiB): 2184 / 14096 / 16280
------------------
     ethr =  1.43E-03,  avg # of iterations =  1.0

     negative rho (up, down):  5.965E-04 1.458E-05

     total cpu time spent up to now is       22.0 secs

     total energy              =    -197.01933171 Ry
     estimated scf accuracy    <       3.72912011 Ry

     total magnetization       =     0.91 Bohr mag/cell
     absolute magnetization    =     6.57 Bohr mag/cell
[tb_dev] Currently allocated     5.06E+00 Mbytes, locked:    0 /   8
[tb_pin] Currently allocated     0.00E+00 Mbytes, locked:    0 /   0

     iteration # 14     ecut=    45.00 Ry     beta= 0.20
     Davidson diagonalization with overlap

---- Real-time Memory Report at c_bands before calling an iterative solver
          1939 MiB given to the printing process from OS
          1113 MiB allocation reported by mallinfo(arena+hblkhd)
         57732 MiB available memory on the node where the printing process lives
     GPU memory used/free/total (MiB): 2184 / 14096 / 16280
------------------
     ethr =  1.43E-03,  avg # of iterations =  1.0

     negative rho (up, down):  1.567E-03 7.975E-05

     total cpu time spent up to now is       23.2 secs

     total energy              =    -197.15880244 Ry
     estimated scf accuracy    <       4.85392417 Ry

     total magnetization       =     1.17 Bohr mag/cell
     absolute magnetization    =     5.94 Bohr mag/cell
[tb_dev] Currently allocated     5.06E+00 Mbytes, locked:    0 /   8
[tb_pin] Currently allocated     0.00E+00 Mbytes, locked:    0 /   0

     iteration # 15     ecut=    45.00 Ry     beta= 0.20
     Davidson diagonalization with overlap

---- Real-time Memory Report at c_bands before calling an iterative solver
          1965 MiB given to the printing process from OS
          1119 MiB allocation reported by mallinfo(arena+hblkhd)
         57728 MiB available memory on the node where the printing process lives
     GPU memory used/free/total (MiB): 2184 / 14096 / 16280
------------------
     ethr =  1.43E-03,  avg # of iterations =  1.9

     negative rho (up, down):  7.934E-04 3.546E-03

     total cpu time spent up to now is       24.5 secs

     total energy              =    -195.79802765 Ry
     estimated scf accuracy    <       7.38892976 Ry

     total magnetization       =     0.64 Bohr mag/cell
     absolute magnetization    =     5.14 Bohr mag/cell
[tb_dev] Currently allocated     5.06E+00 Mbytes, locked:    0 /   8
[tb_pin] Currently allocated     0.00E+00 Mbytes, locked:    0 /   0

     iteration # 16     ecut=    45.00 Ry     beta= 0.20
     Davidson diagonalization with overlap

---- Real-time Memory Report at c_bands before calling an iterative solver
          1990 MiB given to the printing process from OS
          1124 MiB allocation reported by mallinfo(arena+hblkhd)
         57722 MiB available memory on the node where the printing process lives
     GPU memory used/free/total (MiB): 2184 / 14096 / 16280
------------------
     ethr =  1.43E-03,  avg # of iterations =  3.6

     negative rho (up, down):  6.496E-04 7.669E-05

     total cpu time spent up to now is       26.1 secs

     total energy              =    -196.75499877 Ry
     estimated scf accuracy    <      18.31198294 Ry

     total magnetization       =    -0.72 Bohr mag/cell
     absolute magnetization    =     2.77 Bohr mag/cell
[tb_dev] Currently allocated     5.06E+00 Mbytes, locked:    0 /   8
[tb_pin] Currently allocated     0.00E+00 Mbytes, locked:    0 /   0

     iteration # 17     ecut=    45.00 Ry     beta= 0.20
     Davidson diagonalization with overlap

---- Real-time Memory Report at c_bands before calling an iterative solver
          2014 MiB given to the printing process from OS
          1130 MiB allocation reported by mallinfo(arena+hblkhd)
         57718 MiB available memory on the node where the printing process lives
     GPU memory used/free/total (MiB): 2184 / 14096 / 16280
------------------
     ethr =  1.43E-03,  avg # of iterations =  1.9

     negative rho (up, down):  6.406E-04 7.427E-05

     total cpu time spent up to now is       27.4 secs

     total energy              =    -196.91765803 Ry
     estimated scf accuracy    <       1.94988911 Ry

     total magnetization       =    -4.05 Bohr mag/cell
     absolute magnetization    =     8.07 Bohr mag/cell
[tb_dev] Currently allocated     5.06E+00 Mbytes, locked:    0 /   8
[tb_pin] Currently allocated     0.00E+00 Mbytes, locked:    0 /   0

     iteration # 18     ecut=    45.00 Ry     beta= 0.20
     Davidson diagonalization with overlap

---- Real-time Memory Report at c_bands before calling an iterative solver
          2024 MiB given to the printing process from OS
          1135 MiB allocation reported by mallinfo(arena+hblkhd)
         57711 MiB available memory on the node where the printing process lives
     GPU memory used/free/total (MiB): 2184 / 14096 / 16280
------------------
     ethr =  1.43E-03,  avg # of iterations =  1.0

     negative rho (up, down):  6.458E-04 7.342E-05

     total cpu time spent up to now is       28.6 secs

     total energy              =    -196.92343425 Ry
     estimated scf accuracy    <       1.65375631 Ry

     total magnetization       =    -3.61 Bohr mag/cell
     absolute magnetization    =     8.40 Bohr mag/cell
[tb_dev] Currently allocated     5.06E+00 Mbytes, locked:    0 /   8
[tb_pin] Currently allocated     0.00E+00 Mbytes, locked:    0 /   0

     iteration # 19     ecut=    45.00 Ry     beta= 0.20
     Davidson diagonalization with overlap

---- Real-time Memory Report at c_bands before calling an iterative solver
          2035 MiB given to the printing process from OS
          1141 MiB allocation reported by mallinfo(arena+hblkhd)
         57707 MiB available memory on the node where the printing process lives
     GPU memory used/free/total (MiB): 2184 / 14096 / 16280
------------------
     ethr =  1.43E-03,  avg # of iterations =  1.0

     negative rho (up, down):  6.272E-04 1.066E-04

     total cpu time spent up to now is       29.9 secs

     total energy              =    -196.90822432 Ry
     estimated scf accuracy    <       1.66036691 Ry

     total magnetization       =    -3.61 Bohr mag/cell
     absolute magnetization    =     8.37 Bohr mag/cell
[tb_dev] Currently allocated     5.06E+00 Mbytes, locked:    0 /   8
[tb_pin] Currently allocated     0.00E+00 Mbytes, locked:    0 /   0

     iteration # 20     ecut=    45.00 Ry     beta= 0.20
     Davidson diagonalization with overlap

---- Real-time Memory Report at c_bands before calling an iterative solver
          2051 MiB given to the printing process from OS
          1146 MiB allocation reported by mallinfo(arena+hblkhd)
         57700 MiB available memory on the node where the printing process lives
     GPU memory used/free/total (MiB): 2184 / 14096 / 16280
------------------
     ethr =  1.43E-03,  avg # of iterations =  1.0

     negative rho (up, down):  6.493E-04 5.070E-05

     total cpu time spent up to now is       31.1 secs

     total energy              =    -196.92911800 Ry
     estimated scf accuracy    <       1.78750963 Ry

     total magnetization       =    -4.27 Bohr mag/cell
     absolute magnetization    =     8.40 Bohr mag/cell
[tb_dev] Currently allocated     5.06E+00 Mbytes, locked:    0 /   8
[tb_pin] Currently allocated     0.00E+00 Mbytes, locked:    0 /   0

     iteration # 21     ecut=    45.00 Ry     beta= 0.20
     Davidson diagonalization with overlap

---- Real-time Memory Report at c_bands before calling an iterative solver
          2060 MiB given to the printing process from OS
          1151 MiB allocation reported by mallinfo(arena+hblkhd)
         57697 MiB available memory on the node where the printing process lives
     GPU memory used/free/total (MiB): 2184 / 14096 / 16280
------------------
     ethr =  1.43E-03,  avg # of iterations =  1.0

     negative rho (up, down):  5.918E-04 1.528E-04

     total cpu time spent up to now is       32.3 secs

     total energy              =    -196.89462465 Ry
     estimated scf accuracy    <       1.68986992 Ry

     total magnetization       =    -4.27 Bohr mag/cell
     absolute magnetization    =     8.08 Bohr mag/cell
[tb_dev] Currently allocated     5.06E+00 Mbytes, locked:    0 /   8
[tb_pin] Currently allocated     0.00E+00 Mbytes, locked:    0 /   0

     iteration # 22     ecut=    45.00 Ry     beta= 0.20
     Davidson diagonalization with overlap

---- Real-time Memory Report at c_bands before calling an iterative solver
          2070 MiB given to the printing process from OS
          1157 MiB allocation reported by mallinfo(arena+hblkhd)
         57690 MiB available memory on the node where the printing process lives
     GPU memory used/free/total (MiB): 2184 / 14096 / 16280
------------------
     ethr =  1.43E-03,  avg # of iterations =  1.0

     negative rho (up, down):  5.886E-04 1.635E-04

     total cpu time spent up to now is       33.6 secs

     total energy              =    -196.88936917 Ry
     estimated scf accuracy    <       1.96417308 Ry

     total magnetization       =    -4.32 Bohr mag/cell
     absolute magnetization    =     8.55 Bohr mag/cell
[tb_dev] Currently allocated     5.06E+00 Mbytes, locked:    0 /   8
[tb_pin] Currently allocated     0.00E+00 Mbytes, locked:    0 /   0

     iteration # 23     ecut=    45.00 Ry     beta= 0.20
     Davidson diagonalization with overlap

---- Real-time Memory Report at c_bands before calling an iterative solver
          2079 MiB given to the printing process from OS
          1162 MiB allocation reported by mallinfo(arena+hblkhd)
         57685 MiB available memory on the node where the printing process lives
     GPU memory used/free/total (MiB): 2184 / 14096 / 16280
------------------
     ethr =  1.43E-03,  avg # of iterations =  1.0

     negative rho (up, down):  6.621E-04 0.000E+00

     total cpu time spent up to now is       34.8 secs

     total energy              =    -196.90115954 Ry
     estimated scf accuracy    <       1.13065656 Ry

     total magnetization       =    -3.71 Bohr mag/cell
     absolute magnetization    =     8.41 Bohr mag/cell
[tb_dev] Currently allocated     5.06E+00 Mbytes, locked:    0 /   8
[tb_pin] Currently allocated     0.00E+00 Mbytes, locked:    0 /   0

     iteration # 24     ecut=    45.00 Ry     beta= 0.20
     Davidson diagonalization with overlap

---- Real-time Memory Report at c_bands before calling an iterative solver
          2085 MiB given to the printing process from OS
          1168 MiB allocation reported by mallinfo(arena+hblkhd)
         57679 MiB available memory on the node where the printing process lives
     GPU memory used/free/total (MiB): 2184 / 14096 / 16280
------------------
     ethr =  1.43E-03,  avg # of iterations =  1.0

     negative rho (up, down):  5.959E-04 3.950E-04

     total cpu time spent up to now is       36.0 secs

     total energy              =    -196.90522972 Ry
     estimated scf accuracy    <       1.73347868 Ry

     total magnetization       =    -4.35 Bohr mag/cell
     absolute magnetization    =     8.29 Bohr mag/cell
[tb_dev] Currently allocated     5.06E+00 Mbytes, locked:    0 /   8
[tb_pin] Currently allocated     0.00E+00 Mbytes, locked:    0 /   0

     iteration # 25     ecut=    45.00 Ry     beta= 0.20
     Davidson diagonalization with overlap

---- Real-time Memory Report at c_bands before calling an iterative solver
          2090 MiB given to the printing process from OS
          1173 MiB allocation reported by mallinfo(arena+hblkhd)
         57675 MiB available memory on the node where the printing process lives
     GPU memory used/free/total (MiB): 2184 / 14096 / 16280
------------------
     ethr =  1.43E-03,  avg # of iterations =  1.0

     negative rho (up, down):  7.079E-04 0.000E+00

     total cpu time spent up to now is       37.2 secs

     total energy              =    -197.30336655 Ry
     estimated scf accuracy    <       1.97183410 Ry

     total magnetization       =    -3.33 Bohr mag/cell
     absolute magnetization    =     8.87 Bohr mag/cell
[tb_dev] Currently allocated     5.06E+00 Mbytes, locked:    0 /   8
[tb_pin] Currently allocated     0.00E+00 Mbytes, locked:    0 /   0

     iteration # 26     ecut=    45.00 Ry     beta= 0.20
     Davidson diagonalization with overlap

---- Real-time Memory Report at c_bands before calling an iterative solver
          2096 MiB given to the printing process from OS
          1178 MiB allocation reported by mallinfo(arena+hblkhd)
         57670 MiB available memory on the node where the printing process lives
     GPU memory used/free/total (MiB): 2184 / 14096 / 16280
------------------
     ethr =  1.43E-03,  avg # of iterations =  3.5

     negative rho (up, down):  5.866E-04 3.926E-04

     total cpu time spent up to now is       38.7 secs

     total energy              =    -195.99671817 Ry
     estimated scf accuracy    <      21.47434442 Ry

     total magnetization       =    -0.93 Bohr mag/cell
     absolute magnetization    =     1.63 Bohr mag/cell
[tb_dev] Currently allocated     5.06E+00 Mbytes, locked:    0 /   8
[tb_pin] Currently allocated     0.00E+00 Mbytes, locked:    0 /   0

     iteration # 27     ecut=    45.00 Ry     beta= 0.20
     Davidson diagonalization with overlap

---- Real-time Memory Report at c_bands before calling an iterative solver
          2099 MiB given to the printing process from OS
          1184 MiB allocation reported by mallinfo(arena+hblkhd)
         57662 MiB available memory on the node where the printing process lives
     GPU memory used/free/total (MiB): 2184 / 14096 / 16280
------------------
     ethr =  1.43E-03,  avg # of iterations =  2.7

     negative rho (up, down):  6.119E-04 1.391E-04

     total cpu time spent up to now is       40.1 secs

     total energy              =    -196.91037447 Ry
     estimated scf accuracy    <       3.41230074 Ry

     total magnetization       =    -0.27 Bohr mag/cell
     absolute magnetization    =     6.75 Bohr mag/cell
[tb_dev] Currently allocated     5.06E+00 Mbytes, locked:    0 /   8
[tb_pin] Currently allocated     0.00E+00 Mbytes, locked:    0 /   0

     iteration # 28     ecut=    45.00 Ry     beta= 0.20
     Davidson diagonalization with overlap

---- Real-time Memory Report at c_bands before calling an iterative solver
          2106 MiB given to the printing process from OS
          1189 MiB allocation reported by mallinfo(arena+hblkhd)
         57659 MiB available memory on the node where the printing process lives
     GPU memory used/free/total (MiB): 2184 / 14096 / 16280
------------------
     ethr =  1.43E-03,  avg # of iterations =  1.0

     negative rho (up, down):  5.873E-04 1.879E-04

     total cpu time spent up to now is       41.3 secs

     total energy              =    -196.91675596 Ry
     estimated scf accuracy    <       2.25453231 Ry

     total magnetization       =    -0.05 Bohr mag/cell
     absolute magnetization    =     7.34 Bohr mag/cell
[tb_dev] Currently allocated     5.06E+00 Mbytes, locked:    0 /   8
[tb_pin] Currently allocated     0.00E+00 Mbytes, locked:    0 /   0

     iteration # 29     ecut=    45.00 Ry     beta= 0.20
     Davidson diagonalization with overlap

---- Real-time Memory Report at c_bands before calling an iterative solver
          2111 MiB given to the printing process from OS
          1195 MiB allocation reported by mallinfo(arena+hblkhd)
         57652 MiB available memory on the node where the printing process lives
     GPU memory used/free/total (MiB): 2184 / 14096 / 16280
------------------
     ethr =  1.43E-03,  avg # of iterations =  1.0

     negative rho (up, down):  6.151E-04 2.285E-04

     total cpu time spent up to now is       42.5 secs

     total energy              =    -196.92091542 Ry
     estimated scf accuracy    <       0.16989718 Ry

     total magnetization       =    -0.05 Bohr mag/cell
     absolute magnetization    =     8.54 Bohr mag/cell
[tb_dev] Currently allocated     5.06E+00 Mbytes, locked:    0 /   8
[tb_pin] Currently allocated     0.00E+00 Mbytes, locked:    0 /   0

     iteration # 30     ecut=    45.00 Ry     beta= 0.20
     Davidson diagonalization with overlap

---- Real-time Memory Report at c_bands before calling an iterative solver
          2116 MiB given to the printing process from OS
          1200 MiB allocation reported by mallinfo(arena+hblkhd)
         57647 MiB available memory on the node where the printing process lives
     GPU memory used/free/total (MiB): 2184 / 14096 / 16280
------------------
     ethr =  6.80E-04,  avg # of iterations =  1.0

     negative rho (up, down):  5.814E-04 2.229E-04

     total cpu time spent up to now is       43.7 secs

     total energy              =    -197.01314611 Ry
     estimated scf accuracy    <       2.01943749 Ry

     total magnetization       =    -1.95 Bohr mag/cell
     absolute magnetization    =     9.88 Bohr mag/cell
[tb_dev] Currently allocated     5.06E+00 Mbytes, locked:    0 /   8
[tb_pin] Currently allocated     0.00E+00 Mbytes, locked:    0 /   0

     iteration # 31     ecut=    45.00 Ry     beta= 0.20
     Davidson diagonalization with overlap

---- Real-time Memory Report at c_bands before calling an iterative solver
          2122 MiB given to the printing process from OS
          1206 MiB allocation reported by mallinfo(arena+hblkhd)
         57642 MiB available memory on the node where the printing process lives
     GPU memory used/free/total (MiB): 2184 / 14096 / 16280
------------------
     ethr =  6.80E-04,  avg # of iterations =  1.0

     negative rho (up, down):  5.843E-04 9.920E-05

     total cpu time spent up to now is       45.0 secs

     total energy              =    -196.85115822 Ry
     estimated scf accuracy    <       1.72876666 Ry

     total magnetization       =    -1.58 Bohr mag/cell
     absolute magnetization    =     9.30 Bohr mag/cell
[tb_dev] Currently allocated     5.06E+00 Mbytes, locked:    0 /   8
[tb_pin] Currently allocated     0.00E+00 Mbytes, locked:    0 /   0

     iteration # 32     ecut=    45.00 Ry     beta= 0.20
     Davidson diagonalization with overlap

---- Real-time Memory Report at c_bands before calling an iterative solver
          2127 MiB given to the printing process from OS
          1211 MiB allocation reported by mallinfo(arena+hblkhd)
         57637 MiB available memory on the node where the printing process lives
     GPU memory used/free/total (MiB): 2184 / 14096 / 16280
------------------
     ethr =  6.80E-04,  avg # of iterations =  1.1

     negative rho (up, down):  6.075E-04 1.197E-04

     total cpu time spent up to now is       46.2 secs

     total energy              =    -196.83060086 Ry
     estimated scf accuracy    <       2.46348299 Ry

     total magnetization       =     0.03 Bohr mag/cell
     absolute magnetization    =     7.26 Bohr mag/cell
[tb_dev] Currently allocated     5.06E+00 Mbytes, locked:    0 /   8
[tb_pin] Currently allocated     0.00E+00 Mbytes, locked:    0 /   0

     iteration # 33     ecut=    45.00 Ry     beta= 0.20
     Davidson diagonalization with overlap

---- Real-time Memory Report at c_bands before calling an iterative solver
          2133 MiB given to the printing process from OS
          1216 MiB allocation reported by mallinfo(arena+hblkhd)
         57632 MiB available memory on the node where the printing process lives
     GPU memory used/free/total (MiB): 2184 / 14096 / 16280
------------------
     ethr =  6.80E-04,  avg # of iterations =  1.1

     negative rho (up, down):  6.897E-04 0.000E+00

     total cpu time spent up to now is       47.5 secs

     total energy              =    -196.96627133 Ry
     estimated scf accuracy    <       1.52457168 Ry

     total magnetization       =    -1.44 Bohr mag/cell
     absolute magnetization    =     9.68 Bohr mag/cell
[tb_dev] Currently allocated     5.06E+00 Mbytes, locked:    0 /   8
[tb_pin] Currently allocated     0.00E+00 Mbytes, locked:    0 /   0

     iteration # 34     ecut=    45.00 Ry     beta= 0.20
     Davidson diagonalization with overlap

---- Real-time Memory Report at c_bands before calling an iterative solver
          2139 MiB given to the printing process from OS
          1222 MiB allocation reported by mallinfo(arena+hblkhd)
         57626 MiB available memory on the node where the printing process lives
     GPU memory used/free/total (MiB): 2184 / 14096 / 16280
------------------
     ethr =  6.80E-04,  avg # of iterations =  1.0

     negative rho (up, down):  6.729E-04 0.000E+00

     total cpu time spent up to now is       48.7 secs

     total energy              =    -196.95340654 Ry
     estimated scf accuracy    <       1.64991789 Ry

     total magnetization       =    -1.74 Bohr mag/cell
     absolute magnetization    =     9.42 Bohr mag/cell
[tb_dev] Currently allocated     5.06E+00 Mbytes, locked:    0 /   8
[tb_pin] Currently allocated     0.00E+00 Mbytes, locked:    0 /   0

     iteration # 35     ecut=    45.00 Ry     beta= 0.20
     Davidson diagonalization with overlap

---- Real-time Memory Report at c_bands before calling an iterative solver
          2144 MiB given to the printing process from OS
          1227 MiB allocation reported by mallinfo(arena+hblkhd)
         57622 MiB available memory on the node where the printing process lives
     GPU memory used/free/total (MiB): 2184 / 14096 / 16280
------------------
     ethr =  6.80E-04,  avg # of iterations =  1.0

     negative rho (up, down):  2.795E-03 2.360E-03

     total cpu time spent up to now is       49.9 secs

     total energy              =    -196.88755931 Ry
     estimated scf accuracy    <       1.77599280 Ry

     total magnetization       =    -1.98 Bohr mag/cell
     absolute magnetization    =     9.23 Bohr mag/cell
[tb_dev] Currently allocated     5.06E+00 Mbytes, locked:    0 /   8
[tb_pin] Currently allocated     0.00E+00 Mbytes, locked:    0 /   0

     iteration # 36     ecut=    45.00 Ry     beta= 0.20
     Davidson diagonalization with overlap

---- Real-time Memory Report at c_bands before calling an iterative solver
          2150 MiB given to the printing process from OS
          1233 MiB allocation reported by mallinfo(arena+hblkhd)
         57617 MiB available memory on the node where the printing process lives
     GPU memory used/free/total (MiB): 2184 / 14096 / 16280
------------------
     ethr =  6.80E-04,  avg # of iterations =  2.6

     negative rho (up, down):  9.676E-02 5.152E-03

     total cpu time spent up to now is       51.3 secs

     total energy              =    -197.04457456 Ry
     estimated scf accuracy    <       0.56828859 Ry

     total magnetization       =     0.18 Bohr mag/cell
     absolute magnetization    =     8.16 Bohr mag/cell
[tb_dev] Currently allocated     5.06E+00 Mbytes, locked:    0 /   8
[tb_pin] Currently allocated     0.00E+00 Mbytes, locked:    0 /   0

     iteration # 37     ecut=    45.00 Ry     beta= 0.20
     Davidson diagonalization with overlap

---- Real-time Memory Report at c_bands before calling an iterative solver
          2156 MiB given to the printing process from OS
          1238 MiB allocation reported by mallinfo(arena+hblkhd)
         57610 MiB available memory on the node where the printing process lives
     GPU memory used/free/total (MiB): 2184 / 14096 / 16280
------------------
     ethr =  6.80E-04,  avg # of iterations =  2.6

     negative rho (up, down):  1.720E-03 0.000E+00

     total cpu time spent up to now is       52.7 secs

     total energy              =    -196.94627434 Ry
     estimated scf accuracy    <       1.75062779 Ry

     total magnetization       =     1.18 Bohr mag/cell
     absolute magnetization    =     8.03 Bohr mag/cell
[tb_dev] Currently allocated     5.06E+00 Mbytes, locked:    0 /   8
[tb_pin] Currently allocated     0.00E+00 Mbytes, locked:    0 /   0

     iteration # 38     ecut=    45.00 Ry     beta= 0.20
     Davidson diagonalization with overlap

---- Real-time Memory Report at c_bands before calling an iterative solver
          2158 MiB given to the printing process from OS
          1244 MiB allocation reported by mallinfo(arena+hblkhd)
         57606 MiB available memory on the node where the printing process lives
     GPU memory used/free/total (MiB): 2184 / 14096 / 16280
------------------
     ethr =  6.80E-04,  avg # of iterations =  2.0

     negative rho (up, down):  1.605E-03 0.000E+00

     total cpu time spent up to now is       54.0 secs

     total energy              =    -197.16267519 Ry
     estimated scf accuracy    <       1.25285513 Ry

     total magnetization       =    -0.89 Bohr mag/cell
     absolute magnetization    =    10.56 Bohr mag/cell
[tb_dev] Currently allocated     5.06E+00 Mbytes, locked:    0 /   8
[tb_pin] Currently allocated     0.00E+00 Mbytes, locked:    0 /   0

     iteration # 39     ecut=    45.00 Ry     beta= 0.20
     Davidson diagonalization with overlap

---- Real-time Memory Report at c_bands before calling an iterative solver
          2166 MiB given to the printing process from OS
          1249 MiB allocation reported by mallinfo(arena+hblkhd)
         57601 MiB available memory on the node where the printing process lives
     GPU memory used/free/total (MiB): 2184 / 14096 / 16280
------------------
     ethr =  6.80E-04,  avg # of iterations =  1.0

     negative rho (up, down):  2.645E-02 0.000E+00

     total cpu time spent up to now is       55.2 secs

     total energy              =    -197.12886249 Ry
     estimated scf accuracy    <       1.24966610 Ry

     total magnetization       =    -0.76 Bohr mag/cell
     absolute magnetization    =    10.58 Bohr mag/cell
[tb_dev] Currently allocated     5.06E+00 Mbytes, locked:    0 /   8
[tb_pin] Currently allocated     0.00E+00 Mbytes, locked:    0 /   0

     iteration # 40     ecut=    45.00 Ry     beta= 0.20
     Davidson diagonalization with overlap

---- Real-time Memory Report at c_bands before calling an iterative solver
          2170 MiB given to the printing process from OS
          1254 MiB allocation reported by mallinfo(arena+hblkhd)
         57596 MiB available memory on the node where the printing process lives
     GPU memory used/free/total (MiB): 2184 / 14096 / 16280
------------------
     ethr =  6.80E-04,  avg # of iterations =  1.0

     negative rho (up, down):  5.822E-03 0.000E+00

     total cpu time spent up to now is       56.5 secs

     total energy              =    -197.10007604 Ry
     estimated scf accuracy    <       0.64778163 Ry

     total magnetization       =    -0.21 Bohr mag/cell
     absolute magnetization    =    10.60 Bohr mag/cell
[tb_dev] Currently allocated     5.06E+00 Mbytes, locked:    0 /   8
[tb_pin] Currently allocated     0.00E+00 Mbytes, locked:    0 /   0

     iteration # 41     ecut=    45.00 Ry     beta= 0.20
     Davidson diagonalization with overlap

---- Real-time Memory Report at c_bands before calling an iterative solver
          2176 MiB given to the printing process from OS
          1260 MiB allocation reported by mallinfo(arena+hblkhd)
         57590 MiB available memory on the node where the printing process lives
     GPU memory used/free/total (MiB): 2184 / 14096 / 16280
------------------
     ethr =  6.80E-04,  avg # of iterations =  1.1

     negative rho (up, down):  2.636E-03 0.000E+00

     total cpu time spent up to now is       57.7 secs

     total energy              =    -197.09978241 Ry
     estimated scf accuracy    <       0.13436179 Ry

     total magnetization       =     0.95 Bohr mag/cell
     absolute magnetization    =    10.60 Bohr mag/cell
[tb_dev] Currently allocated     5.06E+00 Mbytes, locked:    0 /   8
[tb_pin] Currently allocated     0.00E+00 Mbytes, locked:    0 /   0

     iteration # 42     ecut=    45.00 Ry     beta= 0.20
     Davidson diagonalization with overlap

---- Real-time Memory Report at c_bands before calling an iterative solver
          2181 MiB given to the printing process from OS
          1265 MiB allocation reported by mallinfo(arena+hblkhd)
         57585 MiB available memory on the node where the printing process lives
     GPU memory used/free/total (MiB): 2184 / 14096 / 16280
------------------
     ethr =  5.37E-04,  avg # of iterations =  1.0

     negative rho (up, down):  2.644E-03 0.000E+00

     total cpu time spent up to now is       58.9 secs

     total energy              =    -197.09939521 Ry
     estimated scf accuracy    <       0.14382072 Ry

     total magnetization       =     0.89 Bohr mag/cell
     absolute magnetization    =    10.58 Bohr mag/cell
[tb_dev] Currently allocated     5.06E+00 Mbytes, locked:    0 /   8
[tb_pin] Currently allocated     0.00E+00 Mbytes, locked:    0 /   0

     iteration # 43     ecut=    45.00 Ry     beta= 0.20
     Davidson diagonalization with overlap

---- Real-time Memory Report at c_bands before calling an iterative solver
          2187 MiB given to the printing process from OS
          1271 MiB allocation reported by mallinfo(arena+hblkhd)
         57579 MiB available memory on the node where the printing process lives
     GPU memory used/free/total (MiB): 2184 / 14096 / 16280
------------------
     ethr =  5.37E-04,  avg # of iterations =  1.4

     negative rho (up, down):  3.069E-03 0.000E+00

     total cpu time spent up to now is       60.2 secs

     total energy              =    -197.10637496 Ry
     estimated scf accuracy    <       0.14724724 Ry

     total magnetization       =     0.86 Bohr mag/cell
     absolute magnetization    =    10.58 Bohr mag/cell
[tb_dev] Currently allocated     5.06E+00 Mbytes, locked:    0 /   8
[tb_pin] Currently allocated     0.00E+00 Mbytes, locked:    0 /   0

     iteration # 44     ecut=    45.00 Ry     beta= 0.20
     Davidson diagonalization with overlap

---- Real-time Memory Report at c_bands before calling an iterative solver
          2193 MiB given to the printing process from OS
          1276 MiB allocation reported by mallinfo(arena+hblkhd)
         57575 MiB available memory on the node where the printing process lives
     GPU memory used/free/total (MiB): 2184 / 14096 / 16280
------------------
     ethr =  5.37E-04,  avg # of iterations =  1.1

     negative rho (up, down):  1.453E-02 0.000E+00

     total cpu time spent up to now is       61.4 secs

     total energy              =    -197.10238440 Ry
     estimated scf accuracy    <       0.12926032 Ry

     total magnetization       =     0.93 Bohr mag/cell
     absolute magnetization    =    10.59 Bohr mag/cell
[tb_dev] Currently allocated     5.06E+00 Mbytes, locked:    0 /   8
[tb_pin] Currently allocated     0.00E+00 Mbytes, locked:    0 /   0

     iteration # 45     ecut=    45.00 Ry     beta= 0.20
     Davidson diagonalization with overlap

---- Real-time Memory Report at c_bands before calling an iterative solver
          2198 MiB given to the printing process from OS
          1281 MiB allocation reported by mallinfo(arena+hblkhd)
         57569 MiB available memory on the node where the printing process lives
     GPU memory used/free/total (MiB): 2184 / 14096 / 16280
------------------
     ethr =  5.17E-04,  avg # of iterations =  2.1

     negative rho (up, down):  9.185E-03 0.000E+00

     total cpu time spent up to now is       62.7 secs

     total energy              =    -197.10064624 Ry
     estimated scf accuracy    <       0.05985757 Ry

     total magnetization       =     0.87 Bohr mag/cell
     absolute magnetization    =    10.22 Bohr mag/cell
[tb_dev] Currently allocated     5.06E+00 Mbytes, locked:    0 /   8
[tb_pin] Currently allocated     0.00E+00 Mbytes, locked:    0 /   0

     iteration # 46     ecut=    45.00 Ry     beta= 0.20
     Davidson diagonalization with overlap

---- Real-time Memory Report at c_bands before calling an iterative solver
          2207 MiB given to the printing process from OS
          1287 MiB allocation reported by mallinfo(arena+hblkhd)
         57562 MiB available memory on the node where the printing process lives
     GPU memory used/free/total (MiB): 2184 / 14096 / 16280
------------------
     ethr =  2.39E-04,  avg # of iterations =  2.1

     negative rho (up, down):  2.877E-03 1.039E-02

     total cpu time spent up to now is       64.1 secs

     total energy              =    -197.08755568 Ry
     estimated scf accuracy    <       0.05978037 Ry

     total magnetization       =     0.98 Bohr mag/cell
     absolute magnetization    =    10.26 Bohr mag/cell
[tb_dev] Currently allocated     5.06E+00 Mbytes, locked:    0 /   8
[tb_pin] Currently allocated     0.00E+00 Mbytes, locked:    0 /   0

     iteration # 47     ecut=    45.00 Ry     beta= 0.20
     Davidson diagonalization with overlap

---- Real-time Memory Report at c_bands before calling an iterative solver
          2212 MiB given to the printing process from OS
          1292 MiB allocation reported by mallinfo(arena+hblkhd)
         57560 MiB available memory on the node where the printing process lives
     GPU memory used/free/total (MiB): 2184 / 14096 / 16280
------------------
     ethr =  2.39E-04,  avg # of iterations =  3.0

     negative rho (up, down):  3.104E-03 6.824E-04

     total cpu time spent up to now is       65.6 secs

     total energy              =    -197.17442358 Ry
     estimated scf accuracy    <       1.74753887 Ry

     total magnetization       =     5.00 Bohr mag/cell
     absolute magnetization    =    10.63 Bohr mag/cell
[tb_dev] Currently allocated     5.06E+00 Mbytes, locked:    0 /   8
[tb_pin] Currently allocated     0.00E+00 Mbytes, locked:    0 /   0

     iteration # 48     ecut=    45.00 Ry     beta= 0.20
     Davidson diagonalization with overlap

---- Real-time Memory Report at c_bands before calling an iterative solver
          2218 MiB given to the printing process from OS
          1298 MiB allocation reported by mallinfo(arena+hblkhd)
         57552 MiB available memory on the node where the printing process lives
     GPU memory used/free/total (MiB): 2184 / 14096 / 16280
------------------
     ethr =  2.39E-04,  avg # of iterations =  1.1

     negative rho (up, down):  2.789E-03 1.515E-02

     total cpu time spent up to now is       66.8 secs

     total energy              =    -197.28679232 Ry
     estimated scf accuracy    <       1.68226342 Ry

     total magnetization       =     5.17 Bohr mag/cell
     absolute magnetization    =    10.64 Bohr mag/cell
[tb_dev] Currently allocated     5.06E+00 Mbytes, locked:    0 /   8
[tb_pin] Currently allocated     0.00E+00 Mbytes, locked:    0 /   0

     iteration # 49     ecut=    45.00 Ry     beta= 0.20
     Davidson diagonalization with overlap

---- Real-time Memory Report at c_bands before calling an iterative solver
          2224 MiB given to the printing process from OS
          1303 MiB allocation reported by mallinfo(arena+hblkhd)
         57547 MiB available memory on the node where the printing process lives
     GPU memory used/free/total (MiB): 2184 / 14096 / 16280
------------------
     ethr =  2.39E-04,  avg # of iterations =  1.3

     negative rho (up, down):  6.331E-02 1.320E-04

     total cpu time spent up to now is       68.0 secs

     total energy              =    -197.26345068 Ry
     estimated scf accuracy    <       2.05199148 Ry

     total magnetization       =     5.25 Bohr mag/cell
     absolute magnetization    =    10.64 Bohr mag/cell
[tb_dev] Currently allocated     5.06E+00 Mbytes, locked:    0 /   8
[tb_pin] Currently allocated     0.00E+00 Mbytes, locked:    0 /   0

     iteration # 50     ecut=    45.00 Ry     beta= 0.20
     Davidson diagonalization with overlap

---- Real-time Memory Report at c_bands before calling an iterative solver
          2229 MiB given to the printing process from OS
          1309 MiB allocation reported by mallinfo(arena+hblkhd)
         57542 MiB available memory on the node where the printing process lives
     GPU memory used/free/total (MiB): 2184 / 14096 / 16280
------------------
     ethr =  2.39E-04,  avg # of iterations =  2.0

     negative rho (up, down):  4.106E-02 1.840E-06

     total cpu time spent up to now is       69.3 secs

     total energy              =    -197.20812158 Ry
     estimated scf accuracy    <       8.19705599 Ry

     total magnetization       =     5.26 Bohr mag/cell
     absolute magnetization    =     7.04 Bohr mag/cell
[...]
     GPU memory used/free/total (MiB): 2408 / 13872 / 16280
------------------
     ethr =  2.39E-04,  avg # of iterations =  8.8

     negative rho (up, down):  2.638E-03 0.000E+00

     total cpu time spent up to now is       90.6 secs

     total energy              =    -196.27528733 Ry
     estimated scf accuracy    <      11.12879724 Ry

     total magnetization       =     6.94 Bohr mag/cell
     absolute magnetization    =     7.08 Bohr mag/cell
[tb_dev] Currently allocated     5.06E+00 Mbytes, locked:    0 /   8
[tb_pin] Currently allocated     0.00E+00 Mbytes, locked:    0 /   0

     iteration # 66     ecut=    45.00 Ry     beta= 0.20
     Davidson diagonalization with overlap

---- Real-time Memory Report at c_bands before calling an iterative solver
          2323 MiB given to the printing process from OS
          1395 MiB allocation reported by mallinfo(arena+hblkhd)
         57456 MiB available memory on the node where the printing process lives
     GPU memory used/free/total (MiB): 2408 / 13872 / 16280
------------------
     ethr =  2.39E-04,  avg # of iterations =  4.9

     negative rho (up, down):  2.935E-03 0.000E+00

     total cpu time spent up to now is       92.3 secs

     total energy              =    -197.23737486 Ry
     estimated scf accuracy    <       1.01491735 Ry

     total magnetization       =    -0.08 Bohr mag/cell
     absolute magnetization    =    10.57 Bohr mag/cell
[tb_dev] Currently allocated     5.06E+00 Mbytes, locked:    0 /   8
[tb_pin] Currently allocated     0.00E+00 Mbytes, locked:    0 /   0

     iteration # 67     ecut=    45.00 Ry     beta= 0.20
     Davidson diagonalization with overlap

---- Real-time Memory Report at c_bands before calling an iterative solver
          2329 MiB given to the printing process from OS
          1401 MiB allocation reported by mallinfo(arena+hblkhd)
         57452 MiB available memory on the node where the printing process lives
     GPU memory used/free/total (MiB): 2408 / 13872 / 16280
------------------
     ethr =  2.39E-04,  avg # of iterations =  1.2

     negative rho (up, down):  2.783E-03 0.000E+00

     total cpu time spent up to now is       93.5 secs

     total energy              =    -197.22777788 Ry
     estimated scf accuracy    <       0.87113570 Ry

     total magnetization       =    -0.08 Bohr mag/cell
     absolute magnetization    =    10.63 Bohr mag/cell
[tb_dev] Currently allocated     5.06E+00 Mbytes, locked:    0 /   8
[tb_pin] Currently allocated     0.00E+00 Mbytes, locked:    0 /   0

     iteration # 68     ecut=    45.00 Ry     beta= 0.20
     Davidson diagonalization with overlap

---- Real-time Memory Report at c_bands before calling an iterative solver
          2335 MiB given to the printing process from OS
          1406 MiB allocation reported by mallinfo(arena+hblkhd)
         57446 MiB available memory on the node where the printing process lives
     GPU memory used/free/total (MiB): 2408 / 13872 / 16280
------------------
     ethr =  2.39E-04,  avg # of iterations =  1.0

     negative rho (up, down):  2.877E-03 0.000E+00

     total cpu time spent up to now is       94.8 secs

     total energy              =    -197.25932860 Ry
     estimated scf accuracy    <       0.85431517 Ry

     total magnetization       =    -0.08 Bohr mag/cell
     absolute magnetization    =    10.62 Bohr mag/cell
[tb_dev] Currently allocated     5.06E+00 Mbytes, locked:    0 /   8
[tb_pin] Currently allocated     0.00E+00 Mbytes, locked:    0 /   0

     iteration # 69     ecut=    45.00 Ry     beta= 0.20
     Davidson diagonalization with overlap

---- Real-time Memory Report at c_bands before calling an iterative solver
          2340 MiB given to the printing process from OS
          1412 MiB allocation reported by mallinfo(arena+hblkhd)
         57439 MiB available memory on the node where the printing process lives
     GPU memory used/free/total (MiB): 2408 / 13872 / 16280
------------------
     ethr =  2.39E-04,  avg # of iterations =  1.0

     negative rho (up, down):  2.881E-03 0.000E+00

     total cpu time spent up to now is       96.0 secs

     total energy              =    -197.19977612 Ry
     estimated scf accuracy    <       0.93630680 Ry

     total magnetization       =    -0.08 Bohr mag/cell
     absolute magnetization    =    10.58 Bohr mag/cell
[tb_dev] Currently allocated     5.06E+00 Mbytes, locked:    0 /   8
[tb_pin] Currently allocated     0.00E+00 Mbytes, locked:    0 /   0

     iteration # 70     ecut=    45.00 Ry     beta= 0.20
     Davidson diagonalization with overlap

---- Real-time Memory Report at c_bands before calling an iterative solver
          2349 MiB given to the printing process from OS
          1441 MiB allocation reported by mallinfo(arena+hblkhd)
         57414 MiB available memory on the node where the printing process lives
     GPU memory used/free/total (MiB): 2408 / 13872 / 16280
------------------
     ethr =  2.39E-04,  avg # of iterations =  1.0

     negative rho (up, down):  2.847E-03 0.000E+00

     total cpu time spent up to now is       97.2 secs

     total energy              =    -197.15776121 Ry
     estimated scf accuracy    <       0.79006486 Ry

     total magnetization       =    -0.08 Bohr mag/cell
     absolute magnetization    =    10.63 Bohr mag/cell
[tb_dev] Currently allocated     5.06E+00 Mbytes, locked:    0 /   8
[tb_pin] Currently allocated     0.00E+00 Mbytes, locked:    0 /   0

     iteration # 71     ecut=    45.00 Ry     beta= 0.20
     Davidson diagonalization with overlap

---- Real-time Memory Report at c_bands before calling an iterative solver
          2355 MiB given to the printing process from OS
          1447 MiB allocation reported by mallinfo(arena+hblkhd)
         57409 MiB available memory on the node where the printing process lives
     GPU memory used/free/total (MiB): 2408 / 13872 / 16280
------------------
     ethr =  2.39E-04,  avg # of iterations =  1.0

     negative rho (up, down):  2.922E-03 0.000E+00

     total cpu time spent up to now is       98.4 secs

     total energy              =    -197.35452629 Ry
     estimated scf accuracy    <       0.79721276 Ry

     total magnetization       =    -0.31 Bohr mag/cell
     absolute magnetization    =    10.64 Bohr mag/cell
[tb_dev] Currently allocated     5.06E+00 Mbytes, locked:    0 /   8
[tb_pin] Currently allocated     0.00E+00 Mbytes, locked:    0 /   0

     iteration # 72     ecut=    45.00 Ry     beta= 0.20
     Davidson diagonalization with overlap

---- Real-time Memory Report at c_bands before calling an iterative solver
          2363 MiB given to the printing process from OS
          1452 MiB allocation reported by mallinfo(arena+hblkhd)
         57400 MiB available memory on the node where the printing process lives
     GPU memory used/free/total (MiB): 2408 / 13872 / 16280
------------------
     ethr =  2.39E-04,  avg # of iterations =  3.0

     negative rho (up, down):  2.918E-03 0.000E+00

     total cpu time spent up to now is       99.8 secs

     total energy              =    -197.46283897 Ry
     estimated scf accuracy    <       1.84039018 Ry

     total magnetization       =    -0.69 Bohr mag/cell
     absolute magnetization    =    10.30 Bohr mag/cell
[tb_dev] Currently allocated     5.06E+00 Mbytes, locked:    0 /   8
[tb_pin] Currently allocated     0.00E+00 Mbytes, locked:    0 /   0

     iteration # 73     ecut=    45.00 Ry     beta= 0.20
     Davidson diagonalization with overlap

---- Real-time Memory Report at c_bands before calling an iterative solver
          2368 MiB given to the printing process from OS
          1458 MiB allocation reported by mallinfo(arena+hblkhd)
         57394 MiB available memory on the node where the printing process lives
     GPU memory used/free/total (MiB): 2408 / 13872 / 16280
------------------
     ethr =  2.39E-04,  avg # of iterations =  1.1

     negative rho (up, down):  2.913E-03 0.000E+00

     total cpu time spent up to now is      101.0 secs

     total energy              =    -197.44848741 Ry
     estimated scf accuracy    <       2.11895059 Ry

     total magnetization       =    -0.69 Bohr mag/cell
     absolute magnetization    =    10.06 Bohr mag/cell
[tb_dev] Currently allocated     5.06E+00 Mbytes, locked:    0 /   8
[tb_pin] Currently allocated     0.00E+00 Mbytes, locked:    0 /   0

     iteration # 74     ecut=    45.00 Ry     beta= 0.20
     Davidson diagonalization with overlap

---- Real-time Memory Report at c_bands before calling an iterative solver
          2372 MiB given to the printing process from OS
          1463 MiB allocation reported by mallinfo(arena+hblkhd)
         57389 MiB available memory on the node where the printing process lives
     GPU memory used/free/total (MiB): 2408 / 13872 / 16280
------------------
     ethr =  2.39E-04,  avg # of iterations =  1.0

     negative rho (up, down):  2.911E-03 5.877E-04

     total cpu time spent up to now is      102.3 secs

     total energy              =    -196.94146420 Ry
     estimated scf accuracy    <       2.02947029 Ry

     total magnetization       =    -0.69 Bohr mag/cell
     absolute magnetization    =    10.16 Bohr mag/cell
[tb_dev] Currently allocated     5.06E+00 Mbytes, locked:    0 /   8
[tb_pin] Currently allocated     0.00E+00 Mbytes, locked:    0 /   0

     iteration # 75     ecut=    45.00 Ry     beta= 0.20
     Davidson diagonalization with overlap

---- Real-time Memory Report at c_bands before calling an iterative solver
          2378 MiB given to the printing process from OS
          1468 MiB allocation reported by mallinfo(arena+hblkhd)
         57383 MiB available memory on the node where the printing process lives
     GPU memory used/free/total (MiB): 2408 / 13872 / 16280
------------------
     ethr =  2.39E-04,  avg # of iterations =  4.0

     negative rho (up, down):  2.950E-03 0.000E+00

     total cpu time spent up to now is      103.9 secs

     total energy              =    -196.93517343 Ry
     estimated scf accuracy    <       4.30764433 Ry

     total magnetization       =     6.94 Bohr mag/cell
     absolute magnetization    =    10.64 Bohr mag/cell
[tb_dev] Currently allocated     5.06E+00 Mbytes, locked:    0 /   8
[tb_pin] Currently allocated     0.00E+00 Mbytes, locked:    0 /   0

     iteration # 76     ecut=    45.00 Ry     beta= 0.20
     Davidson diagonalization with overlap

---- Real-time Memory Report at c_bands before calling an iterative solver
          2383 MiB given to the printing process from OS
          1474 MiB allocation reported by mallinfo(arena+hblkhd)
         57380 MiB available memory on the node where the printing process lives
     GPU memory used/free/total (MiB): 2408 / 13872 / 16280
------------------
     ethr =  2.39E-04,  avg # of iterations =  2.3

     negative rho (up, down):  5.833E-03 0.000E+00

     total cpu time spent up to now is      105.3 secs

     total energy              =    -197.26577517 Ry
     estimated scf accuracy    <       1.33632146 Ry

     total magnetization       =    -0.80 Bohr mag/cell
     absolute magnetization    =    10.62 Bohr mag/cell
[tb_dev] Currently allocated     5.06E+00 Mbytes, locked:    0 /   8
[tb_pin] Currently allocated     0.00E+00 Mbytes, locked:    0 /   0

     iteration # 77     ecut=    45.00 Ry     beta= 0.20
     Davidson diagonalization with overlap

---- Real-time Memory Report at c_bands before calling an iterative solver
          2389 MiB given to the printing process from OS
          1479 MiB allocation reported by mallinfo(arena+hblkhd)
         57374 MiB available memory on the node where the printing process lives
     GPU memory used/free/total (MiB): 2408 / 13872 / 16280
------------------
     ethr =  2.39E-04,  avg # of iterations =  1.5

     negative rho (up, down):  4.980E-02 1.901E-07

     total cpu time spent up to now is      106.5 secs

     total energy              =    -197.15422202 Ry
     estimated scf accuracy    <       1.40544519 Ry

     total magnetization       =    -0.80 Bohr mag/cell
     absolute magnetization    =    10.63 Bohr mag/cell
[tb_dev] Currently allocated     5.06E+00 Mbytes, locked:    0 /   8
[tb_pin] Currently allocated     0.00E+00 Mbytes, locked:    0 /   0

     iteration # 78     ecut=    45.00 Ry     beta= 0.20
     Davidson diagonalization with overlap

---- Real-time Memory Report at c_bands before calling an iterative solver
          2395 MiB given to the printing process from OS
          1485 MiB allocation reported by mallinfo(arena+hblkhd)
         57369 MiB available memory on the node where the printing process lives
     GPU memory used/free/total (MiB): 2408 / 13872 / 16280
------------------
     ethr =  2.39E-04,  avg # of iterations =  1.6

     negative rho (up, down):  5.484E-02 3.958E-07

     total cpu time spent up to now is      107.8 secs

     total energy              =    -197.15132705 Ry
     estimated scf accuracy    <       0.40147324 Ry

     total magnetization       =     0.28 Bohr mag/cell
     absolute magnetization    =    10.65 Bohr mag/cell
[tb_dev] Currently allocated     5.06E+00 Mbytes, locked:    0 /   8
[tb_pin] Currently allocated     0.00E+00 Mbytes, locked:    0 /   0

     iteration # 79     ecut=    45.00 Ry     beta= 0.20
     Davidson diagonalization with overlap

---- Real-time Memory Report at c_bands before calling an iterative solver
          2400 MiB given to the printing process from OS
          1490 MiB allocation reported by mallinfo(arena+hblkhd)
         57363 MiB available memory on the node where the printing process lives
     GPU memory used/free/total (MiB): 2408 / 13872 / 16280
------------------
     ethr =  2.39E-04,  avg # of iterations =  1.0

     negative rho (up, down):  2.152E-02 0.000E+00

     total cpu time spent up to now is      109.1 secs

     total energy              =    -197.16112534 Ry
     estimated scf accuracy    <       0.02174284 Ry

     total magnetization       =     1.63 Bohr mag/cell
     absolute magnetization    =    10.65 Bohr mag/cell
[tb_dev] Currently allocated     5.06E+00 Mbytes, locked:    0 /   8
[tb_pin] Currently allocated     0.00E+00 Mbytes, locked:    0 /   0

     iteration # 80     ecut=    45.00 Ry     beta= 0.20
     Davidson diagonalization with overlap

---- Real-time Memory Report at c_bands before calling an iterative solver
          2409 MiB given to the printing process from OS
          1496 MiB allocation reported by mallinfo(arena+hblkhd)
         57359 MiB available memory on the node where the printing process lives
     GPU memory used/free/total (MiB): 2408 / 13872 / 16280
------------------
     ethr =  8.70E-05,  avg # of iterations =  1.7

     negative rho (up, down):  7.421E-02 0.000E+00

     total cpu time spent up to now is      110.4 secs

     total energy              =    -197.25112796 Ry
     estimated scf accuracy    <       1.33911018 Ry

     total magnetization       =    -0.91 Bohr mag/cell
     absolute magnetization    =    10.64 Bohr mag/cell

     End of self-consistent calculation

     convergence NOT achieved after  80 iterations: stopping

     Writing config to output data dir ./out/aiida.save/
 
     init_run     :     18.07s CPU      2.30s WALL (       1 calls)
     electrons    :    522.65s CPU    107.66s WALL (       1 calls)

     Called by init_run:
     wfcinit      :      0.04s CPU      0.04s WALL (       1 calls)
                                        0.04s GPU  (       1 calls)
     potinit      :      6.49s CPU      0.77s WALL (       1 calls)
     hinit0       :      6.44s CPU      0.70s WALL (       1 calls)

     Called by electrons:
     c_bands      :    167.07s CPU     58.24s WALL (      80 calls)
     sum_band     :     16.49s CPU     17.53s WALL (      80 calls)
     v_of_rho     :     35.51s CPU      3.25s WALL (      81 calls)
     v_h          :      5.50s CPU      0.48s WALL (      81 calls)
     v_xc         :     30.00s CPU      2.77s WALL (      81 calls)
     newd         :     42.07s CPU      4.11s WALL (      81 calls)
                                        4.11s GPU  (      81 calls)
     PAW_pot      :    202.06s CPU     18.86s WALL (      81 calls)
     mix_rho      :     50.45s CPU      5.07s WALL (      80 calls)

     Called by c_bands:
     init_us_2    :      9.32s CPU      4.65s WALL (    6400 calls)
     init_us_2:gp :      9.05s CPU      4.53s WALL (    6400 calls)
     cegterg      :    115.68s CPU     42.41s WALL (    3200 calls)

     Called by sum_band:
     sum_band:wei :      0.08s CPU      0.09s WALL (      80 calls)
                                        0.09s GPU  (      80 calls)
     sum_band:loo :      9.81s CPU     10.74s WALL (      80 calls)
                                       10.74s GPU  (      80 calls)
     sum_band:buf :      2.86s CPU      3.13s WALL (    3200 calls)
                                        3.11s GPU  (    3200 calls)
     sum_band:ini :      1.94s CPU      2.22s WALL (    3200 calls)
                                        2.20s GPU  (    3200 calls)
     sum_band:cal :      0.12s CPU      0.40s WALL (    3200 calls)
                                        0.37s GPU  (    3200 calls)
     sum_band:bec :      0.48s CPU      0.56s WALL (    3200 calls)
                                        0.54s GPU  (    3200 calls)
     addusdens    :      3.92s CPU      3.98s WALL (      80 calls)
                                        3.98s GPU  (      80 calls)
     addusd:skk   :      0.02s CPU      0.02s WALL (     160 calls)
                                        0.02s GPU  (     160 calls)

     Called by *egterg:
     cdiaghg      :     27.44s CPU     11.27s WALL (    9232 calls)
                                       11.20s GPU  (    9232 calls)
     cegterg:over :      3.33s CPU      1.33s WALL (    6072 calls)
     cegterg:upda :      3.97s CPU      1.49s WALL (    6072 calls)
     cegterg:last :      1.23s CPU      0.52s WALL (    4541 calls)
     h_psi        :     66.33s CPU     23.13s WALL (    9272 calls)
                                       23.07s GPU  (    9272 calls)
     s_psi        :      2.36s CPU      1.44s WALL (    9272 calls)
                                        1.31s GPU  (    9272 calls)
     g_psi        :      0.13s CPU      0.20s WALL (    6072 calls)
                                        0.16s GPU  (    6072 calls)

     Called by h_psi:
     h_psi:calbec :      1.08s CPU      1.21s WALL (    9272 calls)
                                        1.15s GPU  (    9272 calls)
     vloc_psi     :     56.12s CPU     19.60s WALL (    9272 calls)
                                       19.54s GPU  (    9272 calls)
     add_vuspsi   :      2.91s CPU      1.58s WALL (    9272 calls)
                                        1.52s GPU  (    9272 calls)

     General routines
     calbec       :      0.90s CPU      0.39s WALL (   12472 calls)
     fft          :      2.67s CPU      0.53s WALL (    2023 calls)
                                        0.42s GPU  (    1861 calls)
     ffts         :      0.07s CPU      0.05s WALL (     322 calls)
                                        0.01s GPU  (     160 calls)
     fftw         :      2.36s CPU     14.23s WALL (   37784 calls)
                                       14.03s GPU  (   37784 calls)
     interpolate  :      5.18s CPU      0.45s WALL (     162 calls)
     davcio       :      0.75s CPU      0.28s WALL (      98 calls)
 
     Parallel routines

     PAW routines
     PAW_pot      :    202.06s CPU     18.86s WALL (      81 calls)
     PAW_symme    :      0.26s CPU      0.04s WALL (     160 calls)
 
     PWSCF        :   9m 3.41s CPU   1m50.72s WALL

 
   This run was terminated on:  17:49: 1  23Oct2023            

=------------------------------------------------------------------------------=
   JOB DONE.
=------------------------------------------------------------------------------=
