
     Program PWSCF v.7.2 starts on 23Oct2023 at 18: 0:50 

     This program is part of the open-source Quantum ESPRESSO suite
     for quantum simulation of materials; please cite
         "P. Giannozzi et al., J. Phys.:Condens. Matter 21 395502 (2009);
         "P. Giannozzi et al., J. Phys.:Condens. Matter 29 465901 (2017);
         "P. Giannozzi et al., J. Chem. Phys. 152 154105 (2020);
          URL http://www.quantum-espresso.org", 
     in publications or presentations arising from this work. More details at
     http://www.quantum-espresso.org/quote

     Parallel version (MPI & OpenMP), running on      12 processor cores
     Number of MPI processes:                 1
     Threads/MPI process:                    12

     MPI processes distributed on     1 nodes
     60244 MiB available memory on the printing compute node when the environment starts
 
     Reading input from aiida.in

     Current dimensions of program PWSCF are:
     Max number of different atomic species (ntypx) = 10
     Max number of k-points (npk) =  40000
     Max angular momentum in pseudopotentials (lmaxx) =  4
     file Al.pbesol-n-kjpaw_psl.1.0.0.UPF: wavefunction(s)  3S 3P renormalized
     Message from routine setup:
     using ibrav=0 with symmetry is DISCOURAGED, use correct ibrav instead
 
     Subspace diagonalization in iterative solution of the eigenvalue problem:
     a serial algorithm will be used

 
     G-vector sticks info
     --------------------
     sticks:   dense  smooth     PW     G-vecs:    dense   smooth      PW
     Sum        1519     757    241                38949    13803    2397
 
     Using Slab Decomposition
 


     bravais-lattice index     =            0
     lattice parameter (alat)  =       8.2847  a.u.
     unit-cell volume          =     402.0793 (a.u.)^3
     number of atoms/cell      =            4
     number of atomic types    =            4
     number of electrons       =        42.00
     number of Kohn-Sham states=           25
     kinetic-energy cutoff     =      40.0000  Ry
     charge density cutoff     =     320.0000  Ry
     scf convergence threshold =      8.0E-10
     mixing beta               =       0.2000
     number of iterations used =            8  plain     mixing
     Exchange-correlation= SLA  PW   PSX  PSC
                           (   1   4  10   8   0   0   0)

     GPU acceleration is ACTIVE.


     GPU used by master process:

        Device Number: 0
        Device name: Tesla P100-PCIE-16GB
        Compute capability : 60
        Ratio of single to double precision performance  : 2
        Memory Clock Rate (KHz): 715000
        Memory Bus Width (bits): 4096
        Peak Memory Bandwidth (GB/s): 732.16

     celldm(1)=   8.284677  celldm(2)=   0.000000  celldm(3)=   0.000000
     celldm(4)=   0.000000  celldm(5)=   0.000000  celldm(6)=   0.000000

     crystal axes: (cart. coord. in units of alat)
               a(1) = (   0.000000   0.707107   0.707107 )  
               a(2) = (   0.707107   0.000000   0.707107 )  
               a(3) = (   0.707107   0.707107   0.000000 )  

     reciprocal axes: (cart. coord. in units 2 pi/alat)
               b(1) = ( -0.707107  0.707107  0.707107 )  
               b(2) = (  0.707107 -0.707107  0.707107 )  
               b(3) = (  0.707107  0.707107 -0.707107 )  


     PseudoPot. # 1 for Al read from file:
     ./pseudo/Al.pbesol-n-kjpaw_psl.1.0.0.UPF
     MD5 check sum: 3401bcfaaf5f9b08e46a00870a1ef39d
     Pseudo is Projector augmented-wave + core cor, Zval =  3.0
     Generated using "atomic" code by A. Dal Corso  v.6.0 svn rev. 13079
     Shape of augmentation charge: PSQ
     Using radial grid of 1135 points,  6 beta functions with: 
                l(1) =   0
                l(2) =   0
                l(3) =   1
                l(4) =   1
                l(5) =   2
                l(6) =   2
     Q(r) pseudized with 0 coefficients 


     PseudoPot. # 2 for Cr read from file:
     ./pseudo/cr_pbesol_v1.5.uspp.F.UPF
     MD5 check sum: a621641e0be27168676a837af8893d0f
     Pseudo is Ultrasoft + core correction, Zval = 14.0
     Generated by new atomic code, or converted to UPF format
     Using radial grid of  857 points,  6 beta functions with: 
                l(1) =   0
                l(2) =   0
                l(3) =   1
                l(4) =   1
                l(5) =   2
                l(6) =   2
     Q(r) pseudized with  8 coefficients,  rinner =    0.950   0.950   0.950
                                                       0.950   0.950

     PseudoPot. # 3 for Ti read from file:
     ./pseudo/ti_pbesol_v1.4.uspp.F.UPF
     MD5 check sum: 193cf2c0c3c6a4da613d69453fa7e3e9
     Pseudo is Ultrasoft + core correction, Zval = 12.0
     Generated by new atomic code, or converted to UPF format
     Using radial grid of  851 points,  6 beta functions with: 
                l(1) =   0
                l(2) =   0
                l(3) =   1
                l(4) =   1
                l(5) =   2
                l(6) =   2
     Q(r) pseudized with  6 coefficients,  rinner =    1.000   1.000   1.000
                                                       1.000   1.000

     PseudoPot. # 4 for V  read from file:
     ./pseudo/v_pbesol_v1.4.uspp.F.UPF
     MD5 check sum: 72fa7d0034c41d8adc50bbc8c632b9f9
     Pseudo is Ultrasoft + core correction, Zval = 13.0
     Generated by new atomic code, or converted to UPF format
     Using radial grid of  853 points,  6 beta functions with: 
                l(1) =   0
                l(2) =   0
                l(3) =   1
                l(4) =   1
                l(5) =   2
                l(6) =   2
     Q(r) pseudized with  8 coefficients,  rinner =    1.100   1.100   1.100
                                                       1.100   1.100

     atomic species   valence    mass     pseudopotential
        Al             3.00    26.98154     Al( 1.00)
        Cr            14.00    51.99610     Cr( 1.00)
        Ti            12.00    47.86700     Ti( 1.00)
        V             13.00    50.94150     V ( 1.00)

     Starting magnetic structure 
     atomic species   magnetization
        Al           0.100
        Cr           0.357
        Ti           0.417
        V            0.385

     24 Sym. Ops. (no inversion) found


                                    s                        frac. trans.

      isym =  1     identity                                     

 cryst.   s( 1) = (     1          0          0      )
                  (     0          1          0      )
                  (     0          0          1      )

 cart.    s( 1) = (  1.0000000 -0.0000000  0.0000000 )
                  ( -0.0000000  1.0000000  0.0000000 )
                  ( -0.0000000  0.0000000  1.0000000 )


      isym =  2     180 deg rotation - cart. axis [0,0,1]        

 cryst.   s( 2) = (     0          1         -1      )
                  (     1          0         -1      )
                  (     0          0         -1      )

 cart.    s( 2) = ( -1.0000000  0.0000000  0.0000000 )
                  (  0.0000000 -1.0000000  0.0000000 )
                  (  0.0000000 -0.0000000  1.0000000 )


      isym =  3     180 deg rotation - cart. axis [0,1,0]        

 cryst.   s( 3) = (     0         -1          1      )
                  (     0         -1          0      )
                  (     1         -1          0      )

 cart.    s( 3) = ( -1.0000000 -0.0000000 -0.0000000 )
                  (  0.0000000  1.0000000 -0.0000000 )
                  (  0.0000000  0.0000000 -1.0000000 )


      isym =  4     180 deg rotation - cart. axis [1,0,0]        

 cryst.   s( 4) = (    -1          0          0      )
                  (    -1          0          1      )
                  (    -1          1          0      )

 cart.    s( 4) = (  1.0000000  0.0000000 -0.0000000 )
                  ( -0.0000000 -1.0000000 -0.0000000 )
                  ( -0.0000000 -0.0000000 -1.0000000 )


      isym =  5     120 deg rotation - cart. axis [-1,-1,-1]     

 cryst.   s( 5) = (     0          0          1      )
                  (     1          0          0      )
                  (     0          1          0      )

 cart.    s( 5) = (  0.0000000  1.0000000 -0.0000000 )
                  (  0.0000000 -0.0000000  1.0000000 )
                  (  1.0000000 -0.0000000  0.0000000 )


      isym =  6     120 deg rotation - cart. axis [-1,1,1]       

 cryst.   s( 6) = (     1         -1          0      )
                  (     0         -1          1      )
                  (     0         -1          0      )

 cart.    s( 6) = ( -0.0000000 -1.0000000 -0.0000000 )
                  ( -0.0000000  0.0000000  1.0000000 )
                  ( -1.0000000  0.0000000  0.0000000 )


      isym =  7     120 deg rotation - cart. axis [1,1,-1]       

 cryst.   s( 7) = (    -1          1          0      )
                  (    -1          0          0      )
                  (    -1          0          1      )

 cart.    s( 7) = ( -0.0000000  1.0000000  0.0000000 )
                  ( -0.0000000 -0.0000000 -1.0000000 )
                  ( -1.0000000 -0.0000000 -0.0000000 )


      isym =  8     120 deg rotation - cart. axis [1,-1,1]       

 cryst.   s( 8) = (     0          0         -1      )
                  (     0          1         -1      )
                  (     1          0         -1      )

 cart.    s( 8) = (  0.0000000 -1.0000000  0.0000000 )
                  (  0.0000000  0.0000000 -1.0000000 )
                  (  1.0000000  0.0000000 -0.0000000 )


      isym =  9     120 deg rotation - cart. axis [1,1,1]        

 cryst.   s( 9) = (     0          1          0      )
                  (     0          0          1      )
                  (     1          0          0      )

 cart.    s( 9) = ( -0.0000000  0.0000000  1.0000000 )
                  (  1.0000000  0.0000000 -0.0000000 )
                  (  0.0000000  1.0000000 -0.0000000 )


      isym = 10     120 deg rotation - cart. axis [-1,1,-1]      

 cryst.   s(10) = (    -1          0          1      )
                  (    -1          1          0      )
                  (    -1          0          0      )

 cart.    s(10) = (  0.0000000 -0.0000000  1.0000000 )
                  ( -1.0000000 -0.0000000 -0.0000000 )
                  ( -0.0000000 -1.0000000 -0.0000000 )


      isym = 11     120 deg rotation - cart. axis [1,-1,-1]      

 cryst.   s(11) = (     1          0         -1      )
                  (     0          0         -1      )
                  (     0          1         -1      )

 cart.    s(11) = (  0.0000000  0.0000000 -1.0000000 )
                  ( -1.0000000  0.0000000  0.0000000 )
                  ( -0.0000000  1.0000000  0.0000000 )


      isym = 12     120 deg rotation - cart. axis [-1,-1,1]      

 cryst.   s(12) = (     0         -1          0      )
                  (     1         -1          0      )
                  (     0         -1          1      )

 cart.    s(12) = ( -0.0000000 -0.0000000 -1.0000000 )
                  (  1.0000000 -0.0000000  0.0000000 )
                  (  0.0000000 -1.0000000  0.0000000 )


      isym = 13     inv. 180 deg rotation - cart. axis [1,1,0]   

 cryst.   s(13) = (     1          0         -1      )
                  (     0          1         -1      )
                  (     0          0         -1      )

 cart.    s(13) = (  0.0000000 -1.0000000  0.0000000 )
                  ( -1.0000000  0.0000000  0.0000000 )
                  ( -0.0000000  0.0000000  1.0000000 )


      isym = 14     inv. 180 deg rotation - cart. axis [1,-1,0]  

 cryst.   s(14) = (     0          1          0      )
                  (     1          0          0      )
                  (     0          0          1      )

 cart.    s(14) = ( -0.0000000  1.0000000  0.0000000 )
                  (  1.0000000 -0.0000000  0.0000000 )
                  (  0.0000000 -0.0000000  1.0000000 )


      isym = 15     inv.  90 deg rotation - cart. axis [0,0,-1]  

 cryst.   s(15) = (     0         -1          0      )
                  (     0         -1          1      )
                  (     1         -1          0      )

 cart.    s(15) = ( -0.0000000 -1.0000000 -0.0000000 )
                  (  1.0000000  0.0000000 -0.0000000 )
                  (  0.0000000  0.0000000 -1.0000000 )


      isym = 16     inv.  90 deg rotation - cart. axis [0,0,1]   

 cryst.   s(16) = (    -1          0          1      )
                  (    -1          0          0      )
                  (    -1          1          0      )

 cart.    s(16) = (  0.0000000  1.0000000 -0.0000000 )
                  ( -1.0000000 -0.0000000 -0.0000000 )
                  ( -0.0000000 -0.0000000 -1.0000000 )


      isym = 17     inv. 180 deg rotation - cart. axis [1,0,1]   

 cryst.   s(17) = (     1         -1          0      )
                  (     0         -1          0      )
                  (     0         -1          1      )

 cart.    s(17) = ( -0.0000000 -0.0000000 -1.0000000 )
                  ( -0.0000000  1.0000000  0.0000000 )
                  ( -1.0000000  0.0000000  0.0000000 )


      isym = 18     inv. 180 deg rotation - cart. axis [-1,0,1]  

 cryst.   s(18) = (     0          0          1      )
                  (     0          1          0      )
                  (     1          0          0      )

 cart.    s(18) = (  0.0000000 -0.0000000  1.0000000 )
                  (  0.0000000  1.0000000 -0.0000000 )
                  (  1.0000000  0.0000000 -0.0000000 )


      isym = 19     inv.  90 deg rotation - cart. axis [0,1,0]   

 cryst.   s(19) = (     0          0         -1      )
                  (     1          0         -1      )
                  (     0          1         -1      )

 cart.    s(19) = (  0.0000000  0.0000000 -1.0000000 )
                  (  0.0000000 -1.0000000  0.0000000 )
                  (  1.0000000 -0.0000000  0.0000000 )


      isym = 20     inv.  90 deg rotation - cart. axis [0,-1,0]  

 cryst.   s(20) = (    -1          1          0      )
                  (    -1          0          1      )
                  (    -1          0          0      )

 cart.    s(20) = ( -0.0000000  0.0000000  1.0000000 )
                  ( -0.0000000 -1.0000000 -0.0000000 )
                  ( -1.0000000 -0.0000000 -0.0000000 )


      isym = 21     inv. 180 deg rotation - cart. axis [0,1,1]   

 cryst.   s(21) = (    -1          0          0      )
                  (    -1          1          0      )
                  (    -1          0          1      )

 cart.    s(21) = (  1.0000000 -0.0000000  0.0000000 )
                  ( -0.0000000 -0.0000000 -1.0000000 )
                  ( -0.0000000 -1.0000000 -0.0000000 )


      isym = 22     inv. 180 deg rotation - cart. axis [0,1,-1]  

 cryst.   s(22) = (     1          0          0      )
                  (     0          0          1      )
                  (     0          1          0      )

 cart.    s(22) = (  1.0000000  0.0000000 -0.0000000 )
                  ( -0.0000000  0.0000000  1.0000000 )
                  ( -0.0000000  1.0000000  0.0000000 )


      isym = 23     inv.  90 deg rotation - cart. axis [-1,0,0]  

 cryst.   s(23) = (     0          1         -1      )
                  (     0          0         -1      )
                  (     1          0         -1      )

 cart.    s(23) = ( -1.0000000  0.0000000  0.0000000 )
                  (  0.0000000  0.0000000 -1.0000000 )
                  (  0.0000000  1.0000000 -0.0000000 )


      isym = 24     inv.  90 deg rotation - cart. axis [1,0,0]   

 cryst.   s(24) = (     0         -1          1      )
                  (     1         -1          0      )
                  (     0         -1          0      )

 cart.    s(24) = ( -1.0000000 -0.0000000 -0.0000000 )
                  (  0.0000000 -0.0000000  1.0000000 )
                  (  0.0000000 -1.0000000  0.0000000 )


   Cartesian axes

     site n.     atom                  positions (alat units)
         1           Ti  tau(   1) = (   0.3535534   0.3535534   0.3535534  )
         2           Al  tau(   2) = (   0.3535534   0.3535534   1.0606602  )
         3           V   tau(   3) = (   0.7071068   0.0000000   0.0000000  )
         4           Cr  tau(   4) = (   0.0000000   0.0000000   0.0000000  )

   Crystallographic axes

     site n.     atom                  positions (cryst. coord.)
         1           Ti  tau(   1) = (  0.2500000  0.2500000  0.2500000  )
         2           Al  tau(   2) = (  0.7500000  0.7500000 -0.2500000  )
         3           V   tau(   3) = ( -0.5000000  0.5000000  0.5000000  )
         4           Cr  tau(   4) = (  0.0000000  0.0000000  0.0000000  )

     number of k points=    72  Marzari-Vanderbilt smearing, width (Ry)=  0.0100
                       cart. coord. in units 2pi/alat
        k(    1) = (   0.0000000   0.0000000   0.0000000), wk =   0.0005787
        k(    2) = (   0.0589256   0.0589256  -0.0589256), wk =   0.0046296
        k(    3) = (   0.1178511   0.1178511  -0.1178511), wk =   0.0046296
        k(    4) = (   0.1767767   0.1767767  -0.1767767), wk =   0.0046296
        k(    5) = (   0.2357023   0.2357023  -0.2357023), wk =   0.0046296
        k(    6) = (   0.2946278   0.2946278  -0.2946278), wk =   0.0046296
        k(    7) = (  -0.3535534  -0.3535534   0.3535534), wk =   0.0023148
        k(    8) = (   0.1178511   0.0000000  -0.0000000), wk =   0.0034722
        k(    9) = (   0.1767767   0.0589256  -0.0589256), wk =   0.0138889
        k(   10) = (   0.2357023   0.1178511  -0.1178511), wk =   0.0138889
        k(   11) = (   0.2946278   0.1767767  -0.1767767), wk =   0.0138889
        k(   12) = (   0.3535534   0.2357023  -0.2357023), wk =   0.0138889
        k(   13) = (  -0.2946278  -0.4124790   0.4124790), wk =   0.0138889
        k(   14) = (  -0.2357023  -0.3535534   0.3535534), wk =   0.0138889
        k(   15) = (  -0.1767767  -0.2946278   0.2946278), wk =   0.0138889
        k(   16) = (  -0.1178511  -0.2357023   0.2357023), wk =   0.0138889
        k(   17) = (  -0.0589256  -0.1767767   0.1767767), wk =   0.0138889
        k(   18) = (  -0.0000000  -0.1178511   0.1178511), wk =   0.0069444
        k(   19) = (   0.2357023   0.0000000  -0.0000000), wk =   0.0034722
        k(   20) = (   0.2946278   0.0589256  -0.0589256), wk =   0.0138889
        k(   21) = (   0.3535534   0.1178511  -0.1178511), wk =   0.0138889
        k(   22) = (   0.4124790   0.1767767  -0.1767767), wk =   0.0138889
        k(   23) = (  -0.2357023  -0.4714045   0.4714045), wk =   0.0138889
        k(   24) = (  -0.1767767  -0.4124790   0.4124790), wk =   0.0138889
        k(   25) = (  -0.1178511  -0.3535534   0.3535534), wk =   0.0138889
        k(   26) = (  -0.0589256  -0.2946278   0.2946278), wk =   0.0138889
        k(   27) = (   0.0000000  -0.2357023   0.2357023), wk =   0.0069444
        k(   28) = (   0.3535534   0.0000000   0.0000000), wk =   0.0034722
        k(   29) = (   0.4124790   0.0589256  -0.0589256), wk =   0.0138889
        k(   30) = (   0.4714045   0.1178511  -0.1178511), wk =   0.0138889
        k(   31) = (  -0.1767767  -0.5303301   0.5303301), wk =   0.0138889
        k(   32) = (  -0.1178511  -0.4714045   0.4714045), wk =   0.0138889
        k(   33) = (  -0.0589256  -0.4124790   0.4124790), wk =   0.0138889
        k(   34) = (   0.0000000  -0.3535534   0.3535534), wk =   0.0069444
        k(   35) = (   0.4714045   0.0000000  -0.0000000), wk =   0.0034722
        k(   36) = (   0.5303301   0.0589256  -0.0589256), wk =   0.0138889
        k(   37) = (  -0.1178511  -0.5892557   0.5892557), wk =   0.0138889
        k(   38) = (  -0.0589256  -0.5303301   0.5303301), wk =   0.0138889
        k(   39) = (  -0.0000000  -0.4714045   0.4714045), wk =   0.0069444
        k(   40) = (   0.5892557   0.0000000  -0.0000000), wk =   0.0034722
        k(   41) = (  -0.0589256  -0.6481812   0.6481812), wk =   0.0138889
        k(   42) = (   0.0000000  -0.5892557   0.5892557), wk =   0.0069444
        k(   43) = (  -0.7071068   0.0000000   0.0000000), wk =   0.0017361
        k(   44) = (   0.2357023   0.1178511   0.0000000), wk =   0.0138889
        k(   45) = (   0.2946278   0.1767767  -0.0589256), wk =   0.0277778
        k(   46) = (   0.3535534   0.2357023  -0.1178511), wk =   0.0277778
        k(   47) = (  -0.2946278  -0.4124790   0.5303301), wk =   0.0277778
        k(   48) = (  -0.2357023  -0.3535534   0.4714045), wk =   0.0138889
        k(   49) = (   0.3535534   0.1178511  -0.0000000), wk =   0.0138889
        k(   50) = (   0.4124790   0.1767767  -0.0589256), wk =   0.0277778
        k(   51) = (  -0.2357023  -0.4714045   0.5892557), wk =   0.0277778
        k(   52) = (  -0.1767767  -0.4124790   0.5303301), wk =   0.0277778
        k(   53) = (  -0.1178511  -0.3535534   0.4714045), wk =   0.0277778
        k(   54) = (  -0.0589256  -0.2946278   0.4124790), wk =   0.0277778
        k(   55) = (   0.0000000  -0.2357023   0.3535534), wk =   0.0138889
        k(   56) = (   0.4714045   0.1178511  -0.0000000), wk =   0.0138889
        k(   57) = (  -0.1767767  -0.5303301   0.6481812), wk =   0.0277778
        k(   58) = (  -0.1178511  -0.4714045   0.5892557), wk =   0.0277778
        k(   59) = (  -0.0589256  -0.4124790   0.5303301), wk =   0.0277778
        k(   60) = (   0.0000000  -0.3535534   0.4714045), wk =   0.0138889
        k(   61) = (  -0.1178511  -0.5892557   0.7071068), wk =   0.0138889
        k(   62) = (  -0.0589256  -0.5303301   0.6481812), wk =   0.0277778
        k(   63) = (  -0.0000000  -0.4714045   0.5892557), wk =   0.0138889
        k(   64) = (  -0.7071068   0.1178511  -0.0000000), wk =   0.0069444
        k(   65) = (  -0.2357023  -0.4714045   0.7071068), wk =   0.0138889
        k(   66) = (  -0.1767767  -0.4124790   0.6481812), wk =   0.0277778
        k(   67) = (  -0.1178511  -0.3535534   0.5892557), wk =   0.0138889
        k(   68) = (  -0.1178511  -0.4714045   0.7071068), wk =   0.0138889
        k(   69) = (  -0.0589256  -0.4124790   0.6481812), wk =   0.0277778
        k(   70) = (   0.0000000  -0.3535534   0.5892557), wk =   0.0138889
        k(   71) = (  -0.7071068   0.2357023   0.0000000), wk =   0.0069444
        k(   72) = (  -0.7071068   0.3535534   0.0000000), wk =   0.0034722

                       cryst. coord.
        k(    1) = (   0.0000000   0.0000000   0.0000000), wk =   0.0005787
        k(    2) = (   0.0000000   0.0000000   0.0833333), wk =   0.0046296
        k(    3) = (   0.0000000   0.0000000   0.1666667), wk =   0.0046296
        k(    4) = (   0.0000000   0.0000000   0.2500000), wk =   0.0046296
        k(    5) = (   0.0000000   0.0000000   0.3333333), wk =   0.0046296
        k(    6) = (  -0.0000000  -0.0000000   0.4166667), wk =   0.0046296
        k(    7) = (  -0.0000000  -0.0000000  -0.5000000), wk =   0.0023148
        k(    8) = (  -0.0000000   0.0833333   0.0833333), wk =   0.0034722
        k(    9) = (   0.0000000   0.0833333   0.1666667), wk =   0.0138889
        k(   10) = (  -0.0000000   0.0833333   0.2500000), wk =   0.0138889
        k(   11) = (   0.0000000   0.0833333   0.3333333), wk =   0.0138889
        k(   12) = (  -0.0000000   0.0833333   0.4166667), wk =   0.0138889
        k(   13) = (  -0.0000000   0.0833333  -0.5000000), wk =   0.0138889
        k(   14) = (   0.0000000   0.0833333  -0.4166667), wk =   0.0138889
        k(   15) = (  -0.0000000   0.0833333  -0.3333333), wk =   0.0138889
        k(   16) = (  -0.0000000   0.0833333  -0.2500000), wk =   0.0138889
        k(   17) = (   0.0000000   0.0833333  -0.1666667), wk =   0.0138889
        k(   18) = (   0.0000000   0.0833333  -0.0833333), wk =   0.0069444
        k(   19) = (  -0.0000000   0.1666667   0.1666667), wk =   0.0034722
        k(   20) = (  -0.0000000   0.1666667   0.2500000), wk =   0.0138889
        k(   21) = (   0.0000000   0.1666667   0.3333333), wk =   0.0138889
        k(   22) = (   0.0000000   0.1666667   0.4166667), wk =   0.0138889
        k(   23) = (  -0.0000000   0.1666667  -0.5000000), wk =   0.0138889
        k(   24) = (  -0.0000000   0.1666667  -0.4166667), wk =   0.0138889
        k(   25) = (  -0.0000000   0.1666667  -0.3333333), wk =   0.0138889
        k(   26) = (   0.0000000   0.1666667  -0.2500000), wk =   0.0138889
        k(   27) = (   0.0000000   0.1666667  -0.1666667), wk =   0.0069444
        k(   28) = (   0.0000000   0.2500000   0.2500000), wk =   0.0034722
        k(   29) = (  -0.0000000   0.2500000   0.3333333), wk =   0.0138889
        k(   30) = (  -0.0000000   0.2500000   0.4166667), wk =   0.0138889
        k(   31) = (   0.0000000   0.2500000  -0.5000000), wk =   0.0138889
        k(   32) = (  -0.0000000   0.2500000  -0.4166667), wk =   0.0138889
        k(   33) = (  -0.0000000   0.2500000  -0.3333333), wk =   0.0138889
        k(   34) = (  -0.0000000   0.2500000  -0.2500000), wk =   0.0069444
        k(   35) = (  -0.0000000   0.3333333   0.3333333), wk =   0.0034722
        k(   36) = (  -0.0000000   0.3333333   0.4166667), wk =   0.0138889
        k(   37) = (   0.0000000   0.3333333  -0.5000000), wk =   0.0138889
        k(   38) = (  -0.0000000   0.3333333  -0.4166667), wk =   0.0138889
        k(   39) = (   0.0000000   0.3333333  -0.3333333), wk =   0.0069444
        k(   40) = (   0.0000000   0.4166667   0.4166667), wk =   0.0034722
        k(   41) = (   0.0000000   0.4166667  -0.5000000), wk =   0.0138889
        k(   42) = (   0.0000000   0.4166667  -0.4166667), wk =   0.0069444
        k(   43) = (   0.0000000  -0.5000000  -0.5000000), wk =   0.0017361
        k(   44) = (   0.0833333   0.1666667   0.2500000), wk =   0.0138889
        k(   45) = (   0.0833333   0.1666667   0.3333333), wk =   0.0277778
        k(   46) = (   0.0833333   0.1666667   0.4166667), wk =   0.0277778
        k(   47) = (   0.0833333   0.1666667  -0.5000000), wk =   0.0277778
        k(   48) = (   0.0833333   0.1666667  -0.4166667), wk =   0.0138889
        k(   49) = (   0.0833333   0.2500000   0.3333333), wk =   0.0138889
        k(   50) = (   0.0833333   0.2500000   0.4166667), wk =   0.0277778
        k(   51) = (   0.0833333   0.2500000  -0.5000000), wk =   0.0277778
        k(   52) = (   0.0833333   0.2500000  -0.4166667), wk =   0.0277778
        k(   53) = (   0.0833333   0.2500000  -0.3333333), wk =   0.0277778
        k(   54) = (   0.0833333   0.2500000  -0.2500000), wk =   0.0277778
        k(   55) = (   0.0833333   0.2500000  -0.1666667), wk =   0.0138889
        k(   56) = (   0.0833333   0.3333333   0.4166667), wk =   0.0138889
        k(   57) = (   0.0833333   0.3333333  -0.5000000), wk =   0.0277778
        k(   58) = (   0.0833333   0.3333333  -0.4166667), wk =   0.0277778
        k(   59) = (   0.0833333   0.3333333  -0.3333333), wk =   0.0277778
        k(   60) = (   0.0833333   0.3333333  -0.2500000), wk =   0.0138889
        k(   61) = (   0.0833333   0.4166667  -0.5000000), wk =   0.0138889
        k(   62) = (   0.0833333   0.4166667  -0.4166667), wk =   0.0277778
        k(   63) = (   0.0833333   0.4166667  -0.3333333), wk =   0.0138889
        k(   64) = (   0.0833333  -0.5000000  -0.4166667), wk =   0.0069444
        k(   65) = (   0.1666667   0.3333333  -0.5000000), wk =   0.0138889
        k(   66) = (   0.1666667   0.3333333  -0.4166667), wk =   0.0277778
        k(   67) = (   0.1666667   0.3333333  -0.3333333), wk =   0.0138889
        k(   68) = (   0.1666667   0.4166667  -0.4166667), wk =   0.0138889
        k(   69) = (   0.1666667   0.4166667  -0.3333333), wk =   0.0277778
        k(   70) = (   0.1666667   0.4166667  -0.2500000), wk =   0.0138889
        k(   71) = (   0.1666667  -0.5000000  -0.3333333), wk =   0.0069444
        k(   72) = (   0.2500000  -0.5000000  -0.2500000), wk =   0.0034722

     Dense  grid:    38949 G-vectors     FFT dimensions: (  48,  48,  48)

     Smooth grid:    13803 G-vectors     FFT dimensions: (  36,  36,  36)

     Dynamical RAM for                 wfc:       0.66 MB

     Dynamical RAM for     wfc (w. buffer):      95.03 MB

     Dynamical RAM for           str. fact:       2.38 MB

     Dynamical RAM for           local pot:       0.00 MB

     Dynamical RAM for          nlocal pot:       1.89 MB

     Dynamical RAM for                qrad:       5.74 MB

     Dynamical RAM for          rho,v,vnew:       8.63 MB

     Dynamical RAM for               rhoin:       2.88 MB

     Dynamical RAM for            rho*nmix:      19.02 MB

     Dynamical RAM for           G-vectors:       2.33 MB

     Dynamical RAM for          h,s,v(r/c):       0.11 MB

     Dynamical RAM for          <psi|beta>:       0.03 MB

     Dynamical RAM for                 psi:       1.31 MB

     Dynamical RAM for                hpsi:       1.31 MB

     Dynamical RAM for                spsi:       1.31 MB

     Dynamical RAM for      wfcinit/wfcrot:       1.33 MB

     Dynamical RAM for           addusdens:     111.73 MB

     Dynamical RAM for          addusforce:     111.74 MB

     Dynamical RAM for         addusstress:     120.35 MB

     Estimated static dynamical RAM per process >     126.91 MB

     Estimated max dynamical RAM per process >     266.27 MB

     Atomic positions and unit cell read from directory:
     ./out/aiida.save/
 

     Check: negative core charge=   -0.000009
     Generating pointlists ...
     new r_m :   0.2526 (alat units)  2.0927 (a.u.) for type    1
     new r_m :   0.2526 (alat units)  2.0927 (a.u.) for type    2
     new r_m :   0.2526 (alat units)  2.0927 (a.u.) for type    3
     new r_m :   0.2526 (alat units)  2.0927 (a.u.) for type    4

     The initial density is read from file :
     ./out/aiida.save/charge-density


     negative rho (up, down):  5.886E-04 1.842E-03
     Starting wfcs from file
     Checking if some PAW data can be deallocated... 

     total cpu time spent up to now is        4.0 secs

     per-process dynamical memory:   404.1 Mb

     Self-consistent Calculation
[tb_dev] Currently allocated     3.05E-05 Mbytes, locked:    0 /   2
[tb_pin] Currently allocated     0.00E+00 Mbytes, locked:    0 /   0

     iteration #  1     ecut=    40.00 Ry     beta= 0.20
     Davidson diagonalization with overlap

---- Real-time Memory Report at c_bands before calling an iterative solver
           572 MiB given to the printing process from OS
           395 MiB allocation reported by mallinfo(arena+hblkhd)
         58886 MiB available memory on the node where the printing process lives
     GPU memory used/free/total (MiB): 592 / 15688 / 16280
------------------
     ethr =  1.00E-05,  avg # of iterations =  1.1

     Threshold (ethr) on eigenvalues was too large:
     Diagonalizing with lowered threshold

     Davidson diagonalization with overlap

---- Real-time Memory Report at c_bands before calling an iterative solver
          1023 MiB given to the printing process from OS
           800 MiB allocation reported by mallinfo(arena+hblkhd)
         57973 MiB available memory on the node where the printing process lives
     GPU memory used/free/total (MiB): 882 / 15398 / 16280
------------------
     ethr =  5.13E-07,  avg # of iterations =  1.0

     negative rho (up, down):  5.933E-04 1.837E-03

     total cpu time spent up to now is        8.6 secs

     total energy              =    -478.01013438 Ry
     estimated scf accuracy    <       0.00021533 Ry

     total magnetization       =     2.71 Bohr mag/cell
     absolute magnetization    =     2.84 Bohr mag/cell
[tb_dev] Currently allocated     4.56E-01 Mbytes, locked:    0 /   6
[tb_pin] Currently allocated     0.00E+00 Mbytes, locked:    0 /   0

     iteration #  2     ecut=    40.00 Ry     beta= 0.20
     Davidson diagonalization with overlap

---- Real-time Memory Report at c_bands before calling an iterative solver
          1126 MiB given to the printing process from OS
           804 MiB allocation reported by mallinfo(arena+hblkhd)
         57953 MiB available memory on the node where the printing process lives
     GPU memory used/free/total (MiB): 882 / 15398 / 16280
------------------
     ethr =  5.13E-07,  avg # of iterations =  1.0

     negative rho (up, down):  5.958E-04 1.835E-03

     total cpu time spent up to now is       10.8 secs

     total energy              =    -478.01019298 Ry
     estimated scf accuracy    <       0.00020557 Ry

     total magnetization       =     2.68 Bohr mag/cell
     absolute magnetization    =     2.81 Bohr mag/cell
[tb_dev] Currently allocated     4.56E-01 Mbytes, locked:    0 /   6
[tb_pin] Currently allocated     0.00E+00 Mbytes, locked:    0 /   0

     iteration #  3     ecut=    40.00 Ry     beta= 0.20
     Davidson diagonalization with overlap

---- Real-time Memory Report at c_bands before calling an iterative solver
          1191 MiB given to the printing process from OS
           807 MiB allocation reported by mallinfo(arena+hblkhd)
         57947 MiB available memory on the node where the printing process lives
     GPU memory used/free/total (MiB): 882 / 15398 / 16280
------------------
     ethr =  4.89E-07,  avg # of iterations =  1.0

     negative rho (up, down):  6.075E-04 1.823E-03

     total cpu time spent up to now is       13.1 secs

     total energy              =    -478.01039103 Ry
     estimated scf accuracy    <       0.00026006 Ry

     total magnetization       =     2.65 Bohr mag/cell
     absolute magnetization    =     2.78 Bohr mag/cell
[tb_dev] Currently allocated     4.56E-01 Mbytes, locked:    0 /   6
[tb_pin] Currently allocated     0.00E+00 Mbytes, locked:    0 /   0

     iteration #  4     ecut=    40.00 Ry     beta= 0.20
     Davidson diagonalization with overlap

---- Real-time Memory Report at c_bands before calling an iterative solver
          1258 MiB given to the printing process from OS
           810 MiB allocation reported by mallinfo(arena+hblkhd)
         57943 MiB available memory on the node where the printing process lives
     GPU memory used/free/total (MiB): 882 / 15398 / 16280
------------------
     ethr =  4.89E-07,  avg # of iterations =  3.6

     negative rho (up, down):  5.395E-04 1.889E-03

     total cpu time spent up to now is       16.4 secs

     total energy              =    -478.00678582 Ry
     estimated scf accuracy    <       0.00025206 Ry

     total magnetization       =     2.56 Bohr mag/cell
     absolute magnetization    =     2.70 Bohr mag/cell
[tb_dev] Currently allocated     4.56E-01 Mbytes, locked:    0 /   6
[tb_pin] Currently allocated     0.00E+00 Mbytes, locked:    0 /   0

     iteration #  5     ecut=    40.00 Ry     beta= 0.20
     Davidson diagonalization with overlap

---- Real-time Memory Report at c_bands before calling an iterative solver
          1321 MiB given to the printing process from OS
           814 MiB allocation reported by mallinfo(arena+hblkhd)
         57939 MiB available memory on the node where the printing process lives
     GPU memory used/free/total (MiB): 908 / 15372 / 16280
------------------
     ethr =  4.89E-07,  avg # of iterations =  6.0

     negative rho (up, down):  5.372E-04 1.892E-03

     total cpu time spent up to now is       21.0 secs

     total energy              =    -478.00909808 Ry
     estimated scf accuracy    <       0.00049595 Ry

     total magnetization       =     3.09 Bohr mag/cell
     absolute magnetization    =     3.20 Bohr mag/cell
[tb_dev] Currently allocated     4.56E-01 Mbytes, locked:    0 /   6
[tb_pin] Currently allocated     0.00E+00 Mbytes, locked:    0 /   0

     iteration #  6     ecut=    40.00 Ry     beta= 0.20
     Davidson diagonalization with overlap

---- Real-time Memory Report at c_bands before calling an iterative solver
          1388 MiB given to the printing process from OS
           817 MiB allocation reported by mallinfo(arena+hblkhd)
         57937 MiB available memory on the node where the printing process lives
     GPU memory used/free/total (MiB): 966 / 15314 / 16280
------------------
     ethr =  4.89E-07,  avg # of iterations =  1.1

     negative rho (up, down):  6.009E-04 1.830E-03

     total cpu time spent up to now is       23.2 secs

     total energy              =    -478.00850031 Ry
     estimated scf accuracy    <       0.00047486 Ry

     total magnetization       =     3.11 Bohr mag/cell
     absolute magnetization    =     3.22 Bohr mag/cell
[tb_dev] Currently allocated     4.56E-01 Mbytes, locked:    0 /   6
[tb_pin] Currently allocated     0.00E+00 Mbytes, locked:    0 /   0

     iteration #  7     ecut=    40.00 Ry     beta= 0.20
     Davidson diagonalization with overlap

---- Real-time Memory Report at c_bands before calling an iterative solver
          1450 MiB given to the printing process from OS
           820 MiB allocation reported by mallinfo(arena+hblkhd)
         57934 MiB available memory on the node where the printing process lives
     GPU memory used/free/total (MiB): 966 / 15314 / 16280
------------------
     ethr =  4.89E-07,  avg # of iterations =  6.5

     negative rho (up, down):  5.904E-04 1.840E-03

     total cpu time spent up to now is       28.0 secs

     total energy              =    -478.01005007 Ry
     estimated scf accuracy    <       0.00055829 Ry

     total magnetization       =     2.65 Bohr mag/cell
     absolute magnetization    =     2.78 Bohr mag/cell
[tb_dev] Currently allocated     4.56E-01 Mbytes, locked:    0 /   6
[tb_pin] Currently allocated     0.00E+00 Mbytes, locked:    0 /   0

     iteration #  8     ecut=    40.00 Ry     beta= 0.20
     Davidson diagonalization with overlap

---- Real-time Memory Report at c_bands before calling an iterative solver
          1515 MiB given to the printing process from OS
           822 MiB allocation reported by mallinfo(arena+hblkhd)
         57925 MiB available memory on the node where the printing process lives
     GPU memory used/free/total (MiB): 966 / 15314 / 16280
------------------
     ethr =  4.89E-07,  avg # of iterations =  1.6

     negative rho (up, down):  4.474E-04 1.978E-03

     total cpu time spent up to now is       30.4 secs

     total energy              =    -477.99681703 Ry
     estimated scf accuracy    <       0.00069805 Ry

     total magnetization       =     2.74 Bohr mag/cell
     absolute magnetization    =     2.86 Bohr mag/cell
[tb_dev] Currently allocated     4.56E-01 Mbytes, locked:    0 /   6
[tb_pin] Currently allocated     0.00E+00 Mbytes, locked:    0 /   0

     iteration #  9     ecut=    40.00 Ry     beta= 0.20
     Davidson diagonalization with overlap

---- Real-time Memory Report at c_bands before calling an iterative solver
          1553 MiB given to the printing process from OS
           825 MiB allocation reported by mallinfo(arena+hblkhd)
         57922 MiB available memory on the node where the printing process lives
     GPU memory used/free/total (MiB): 966 / 15314 / 16280
------------------
     c_bands:  1 eigenvalues not converged
     c_bands:  1 eigenvalues not converged
     c_bands:  1 eigenvalues not converged
     c_bands:  1 eigenvalues not converged
     ethr =  4.89E-07,  avg # of iterations = 10.7

     negative rho (up, down):  4.973E-04 1.930E-03

     total cpu time spent up to now is       37.3 secs

     total energy              =    -478.00739253 Ry
     estimated scf accuracy    <       0.00200290 Ry

     total magnetization       =     3.55 Bohr mag/cell
     absolute magnetization    =     3.65 Bohr mag/cell
[tb_dev] Currently allocated     4.56E-01 Mbytes, locked:    0 /   6
[tb_pin] Currently allocated     0.00E+00 Mbytes, locked:    0 /   0

     iteration # 10     ecut=    40.00 Ry     beta= 0.20
     Davidson diagonalization with overlap

---- Real-time Memory Report at c_bands before calling an iterative solver
          1575 MiB given to the printing process from OS
           828 MiB allocation reported by mallinfo(arena+hblkhd)
         57920 MiB available memory on the node where the printing process lives
     GPU memory used/free/total (MiB): 966 / 15314 / 16280
------------------
     ethr =  4.89E-07,  avg # of iterations =  6.6

     negative rho (up, down):  6.389E-04 1.794E-03

     total cpu time spent up to now is       42.1 secs

     total energy              =    -478.00162901 Ry
     estimated scf accuracy    <       0.00138113 Ry

     total magnetization       =     3.30 Bohr mag/cell
     absolute magnetization    =     3.40 Bohr mag/cell
[tb_dev] Currently allocated     4.56E-01 Mbytes, locked:    0 /   6
[tb_pin] Currently allocated     0.00E+00 Mbytes, locked:    0 /   0

     iteration # 11     ecut=    40.00 Ry     beta= 0.20
     Davidson diagonalization with overlap

---- Real-time Memory Report at c_bands before calling an iterative solver
          1597 MiB given to the printing process from OS
           830 MiB allocation reported by mallinfo(arena+hblkhd)
         57924 MiB available memory on the node where the printing process lives
     GPU memory used/free/total (MiB): 966 / 15314 / 16280
------------------
     c_bands:  1 eigenvalues not converged
     c_bands:  1 eigenvalues not converged
     c_bands:  1 eigenvalues not converged
     c_bands:  1 eigenvalues not converged
     c_bands:  1 eigenvalues not converged
     c_bands:  1 eigenvalues not converged
     ethr =  4.89E-07,  avg # of iterations = 10.3

     negative rho (up, down):  5.930E-04 1.838E-03

     total cpu time spent up to now is       49.1 secs

     total energy              =    -478.00875100 Ry
     estimated scf accuracy    <       0.00107025 Ry

     total magnetization       =     2.23 Bohr mag/cell
     absolute magnetization    =     2.46 Bohr mag/cell
[tb_dev] Currently allocated     4.56E-01 Mbytes, locked:    0 /   6
[tb_pin] Currently allocated     0.00E+00 Mbytes, locked:    0 /   0

     iteration # 12     ecut=    40.00 Ry     beta= 0.20
     Davidson diagonalization with overlap

---- Real-time Memory Report at c_bands before calling an iterative solver
          1617 MiB given to the printing process from OS
           831 MiB allocation reported by mallinfo(arena+hblkhd)
         57920 MiB available memory on the node where the printing process lives
     GPU memory used/free/total (MiB): 966 / 15314 / 16280
------------------
     ethr =  4.89E-07,  avg # of iterations =  6.6

     negative rho (up, down):  5.962E-04 1.835E-03

     total cpu time spent up to now is       53.9 secs

     total energy              =    -478.01021049 Ry
     estimated scf accuracy    <       0.00039913 Ry

     total magnetization       =     2.66 Bohr mag/cell
     absolute magnetization    =     2.79 Bohr mag/cell
[tb_dev] Currently allocated     4.56E-01 Mbytes, locked:    0 /   6
[tb_pin] Currently allocated     0.00E+00 Mbytes, locked:    0 /   0

     iteration # 13     ecut=    40.00 Ry     beta= 0.20
     Davidson diagonalization with overlap

---- Real-time Memory Report at c_bands before calling an iterative solver
          1638 MiB given to the printing process from OS
           833 MiB allocation reported by mallinfo(arena+hblkhd)
         57923 MiB available memory on the node where the printing process lives
     GPU memory used/free/total (MiB): 966 / 15314 / 16280
------------------
     ethr =  4.89E-07,  avg # of iterations =  1.0

     negative rho (up, down):  5.936E-04 1.837E-03

     total cpu time spent up to now is       56.1 secs

     total energy              =    -478.01014691 Ry
     estimated scf accuracy    <       0.00047185 Ry

     total magnetization       =     2.63 Bohr mag/cell
     absolute magnetization    =     2.76 Bohr mag/cell
[tb_dev] Currently allocated     4.56E-01 Mbytes, locked:    0 /   6
[tb_pin] Currently allocated     0.00E+00 Mbytes, locked:    0 /   0

     iteration # 14     ecut=    40.00 Ry     beta= 0.20
     Davidson diagonalization with overlap

---- Real-time Memory Report at c_bands before calling an iterative solver
          1659 MiB given to the printing process from OS
           835 MiB allocation reported by mallinfo(arena+hblkhd)
         57921 MiB available memory on the node where the printing process lives
     GPU memory used/free/total (MiB): 966 / 15314 / 16280
------------------
     ethr =  4.89E-07,  avg # of iterations =  1.0

     negative rho (up, down):  5.827E-04 1.848E-03

     total cpu time spent up to now is       58.2 secs

     total energy              =    -478.00981164 Ry
     estimated scf accuracy    <       0.00043624 Ry

     total magnetization       =     2.65 Bohr mag/cell
     absolute magnetization    =     2.79 Bohr mag/cell
[tb_dev] Currently allocated     4.56E-01 Mbytes, locked:    0 /   6
[tb_pin] Currently allocated     0.00E+00 Mbytes, locked:    0 /   0

     iteration # 15     ecut=    40.00 Ry     beta= 0.20
     Davidson diagonalization with overlap

---- Real-time Memory Report at c_bands before calling an iterative solver
          1679 MiB given to the printing process from OS
           836 MiB allocation reported by mallinfo(arena+hblkhd)
         57918 MiB available memory on the node where the printing process lives
     GPU memory used/free/total (MiB): 966 / 15314 / 16280
------------------
     ethr =  4.89E-07,  avg # of iterations =  3.7

     negative rho (up, down):  5.938E-04 1.837E-03

     total cpu time spent up to now is       61.5 secs

     total energy              =    -478.01008188 Ry
     estimated scf accuracy    <       0.00043277 Ry

     total magnetization       =     2.74 Bohr mag/cell
     absolute magnetization    =     2.87 Bohr mag/cell
[tb_dev] Currently allocated     4.56E-01 Mbytes, locked:    0 /   6
[tb_pin] Currently allocated     0.00E+00 Mbytes, locked:    0 /   0

     iteration # 16     ecut=    40.00 Ry     beta= 0.20
     Davidson diagonalization with overlap

---- Real-time Memory Report at c_bands before calling an iterative solver
          1701 MiB given to the printing process from OS
           848 MiB allocation reported by mallinfo(arena+hblkhd)
         57914 MiB available memory on the node where the printing process lives
     GPU memory used/free/total (MiB): 966 / 15314 / 16280
------------------
     ethr =  4.89E-07,  avg # of iterations =  1.7

     negative rho (up, down):  5.929E-04 1.838E-03

     total cpu time spent up to now is       63.9 secs

     total energy              =    -478.01013378 Ry
     estimated scf accuracy    <       0.00059294 Ry

     total magnetization       =     2.65 Bohr mag/cell
     absolute magnetization    =     2.78 Bohr mag/cell
[tb_dev] Currently allocated     4.56E-01 Mbytes, locked:    0 /   6
[tb_pin] Currently allocated     0.00E+00 Mbytes, locked:    0 /   0

     iteration # 17     ecut=    40.00 Ry     beta= 0.20
     Davidson diagonalization with overlap

---- Real-time Memory Report at c_bands before calling an iterative solver
          1722 MiB given to the printing process from OS
           850 MiB allocation reported by mallinfo(arena+hblkhd)
         57909 MiB available memory on the node where the printing process lives
     GPU memory used/free/total (MiB): 966 / 15314 / 16280
------------------
     ethr =  4.89E-07,  avg # of iterations =  1.0

     negative rho (up, down):  5.893E-04 1.842E-03

     total cpu time spent up to now is       66.1 secs

     total energy              =    -478.01005992 Ry
     estimated scf accuracy    <       0.00055944 Ry

     total magnetization       =     2.66 Bohr mag/cell
     absolute magnetization    =     2.79 Bohr mag/cell
[tb_dev] Currently allocated     4.56E-01 Mbytes, locked:    0 /   6
[tb_pin] Currently allocated     0.00E+00 Mbytes, locked:    0 /   0

     iteration # 18     ecut=    40.00 Ry     beta= 0.20
     Davidson diagonalization with overlap

---- Real-time Memory Report at c_bands before calling an iterative solver
          1744 MiB given to the printing process from OS
           852 MiB allocation reported by mallinfo(arena+hblkhd)
         57908 MiB available memory on the node where the printing process lives
     GPU memory used/free/total (MiB): 966 / 15314 / 16280
------------------
     ethr =  4.89E-07,  avg # of iterations =  1.0

     negative rho (up, down):  5.748E-04 1.855E-03

     total cpu time spent up to now is       68.2 secs

     total energy              =    -478.00950567 Ry
     estimated scf accuracy    <       0.00057398 Ry

     total magnetization       =     2.68 Bohr mag/cell
     absolute magnetization    =     2.81 Bohr mag/cell
[tb_dev] Currently allocated     4.56E-01 Mbytes, locked:    0 /   6
[tb_pin] Currently allocated     0.00E+00 Mbytes, locked:    0 /   0

     iteration # 19     ecut=    40.00 Ry     beta= 0.20
     Davidson diagonalization with overlap

---- Real-time Memory Report at c_bands before calling an iterative solver
          1754 MiB given to the printing process from OS
           853 MiB allocation reported by mallinfo(arena+hblkhd)
         57908 MiB available memory on the node where the printing process lives
     GPU memory used/free/total (MiB): 966 / 15314 / 16280
------------------
     ethr =  4.89E-07,  avg # of iterations =  3.7

     negative rho (up, down):  4.805E-04 1.946E-03

     total cpu time spent up to now is       71.5 secs

     total energy              =    -478.00316705 Ry
     estimated scf accuracy    <       0.00018724 Ry

     total magnetization       =     2.84 Bohr mag/cell
     absolute magnetization    =     2.96 Bohr mag/cell
[tb_dev] Currently allocated     4.56E-01 Mbytes, locked:    0 /   6
[tb_pin] Currently allocated     0.00E+00 Mbytes, locked:    0 /   0

     iteration # 20     ecut=    40.00 Ry     beta= 0.20
     Davidson diagonalization with overlap

---- Real-time Memory Report at c_bands before calling an iterative solver
          1756 MiB given to the printing process from OS
           855 MiB allocation reported by mallinfo(arena+hblkhd)
         57907 MiB available memory on the node where the printing process lives
     GPU memory used/free/total (MiB): 966 / 15314 / 16280
------------------
     c_bands:  1 eigenvalues not converged
     c_bands:  1 eigenvalues not converged
     c_bands:  1 eigenvalues not converged
     c_bands:  1 eigenvalues not converged
     c_bands:  1 eigenvalues not converged
     ethr =  4.46E-07,  avg # of iterations =  9.4

     negative rho (up, down):  7.395E-04 1.697E-03

     total cpu time spent up to now is       78.0 secs

     total energy              =    -477.97936838 Ry
     estimated scf accuracy    <       0.00220083 Ry

     total magnetization       =     3.39 Bohr mag/cell
     absolute magnetization    =     3.50 Bohr mag/cell
[tb_dev] Currently allocated     4.56E-01 Mbytes, locked:    0 /   6
[tb_pin] Currently allocated     0.00E+00 Mbytes, locked:    0 /   0

     iteration # 21     ecut=    40.00 Ry     beta= 0.20
     Davidson diagonalization with overlap

---- Real-time Memory Report at c_bands before calling an iterative solver
          1758 MiB given to the printing process from OS
           857 MiB allocation reported by mallinfo(arena+hblkhd)
         57908 MiB available memory on the node where the printing process lives
     GPU memory used/free/total (MiB): 966 / 15314 / 16280
------------------
     c_bands:  1 eigenvalues not converged
     c_bands:  1 eigenvalues not converged
     c_bands:  1 eigenvalues not converged
     c_bands:  1 eigenvalues not converged
     c_bands:  1 eigenvalues not converged
     c_bands:  1 eigenvalues not converged
     c_bands:  1 eigenvalues not converged
     c_bands:  1 eigenvalues not converged
     c_bands:  1 eigenvalues not converged
     c_bands:  1 eigenvalues not converged
     c_bands:  1 eigenvalues not converged
     c_bands:  1 eigenvalues not converged
     c_bands:  1 eigenvalues not converged
     c_bands:  1 eigenvalues not converged
     c_bands:  1 eigenvalues not converged
     c_bands:  1 eigenvalues not converged
     c_bands:  1 eigenvalues not converged
     c_bands:  1 eigenvalues not converged
     c_bands:  1 eigenvalues not converged
     c_bands:  1 eigenvalues not converged
     c_bands:  1 eigenvalues not converged
     c_bands:  1 eigenvalues not converged
     c_bands:  1 eigenvalues not converged
     c_bands:  1 eigenvalues not converged
     c_bands:  1 eigenvalues not converged
     c_bands:  1 eigenvalues not converged
     ethr =  4.46E-07,  avg # of iterations = 13.2

     negative rho (up, down):  5.929E-04 1.837E-03

     total cpu time spent up to now is       86.2 secs

     total energy              =    -477.99108901 Ry
     estimated scf accuracy    <       0.00526425 Ry

     total magnetization       =     1.19 Bohr mag/cell
     absolute magnetization    =     2.82 Bohr mag/cell
[tb_dev] Currently allocated     4.56E-01 Mbytes, locked:    0 /   6
[tb_pin] Currently allocated     0.00E+00 Mbytes, locked:    0 /   0

     iteration # 22     ecut=    40.00 Ry     beta= 0.20
     Davidson diagonalization with overlap

---- Real-time Memory Report at c_bands before calling an iterative solver
          1760 MiB given to the printing process from OS
           859 MiB allocation reported by mallinfo(arena+hblkhd)
         57904 MiB available memory on the node where the printing process lives
     GPU memory used/free/total (MiB): 966 / 15314 / 16280
------------------
     c_bands:  1 eigenvalues not converged
     c_bands:  1 eigenvalues not converged
     c_bands:  1 eigenvalues not converged
     c_bands:  1 eigenvalues not converged
     c_bands:  1 eigenvalues not converged
     c_bands:  1 eigenvalues not converged
     c_bands:  1 eigenvalues not converged
     c_bands:  1 eigenvalues not converged
     ethr =  4.46E-07,  avg # of iterations = 11.1

     negative rho (up, down):  6.398E-04 1.792E-03

     total cpu time spent up to now is       93.4 secs

     total energy              =    -478.00993446 Ry
     estimated scf accuracy    <       0.00020885 Ry

     total magnetization       =     2.70 Bohr mag/cell
     absolute magnetization    =     2.83 Bohr mag/cell
[tb_dev] Currently allocated     4.56E-01 Mbytes, locked:    0 /   6
[tb_pin] Currently allocated     0.00E+00 Mbytes, locked:    0 /   0

     iteration # 23     ecut=    40.00 Ry     beta= 0.20
     Davidson diagonalization with overlap

---- Real-time Memory Report at c_bands before calling an iterative solver
          1762 MiB given to the printing process from OS
           860 MiB allocation reported by mallinfo(arena+hblkhd)
         57904 MiB available memory on the node where the printing process lives
     GPU memory used/free/total (MiB): 966 / 15314 / 16280
------------------
     ethr =  4.46E-07,  avg # of iterations =  6.9

     negative rho (up, down):  5.891E-04 1.841E-03

     total cpu time spent up to now is       98.3 secs

     total energy              =    -478.00816392 Ry
     estimated scf accuracy    <       0.00064515 Ry

     total magnetization       =     2.27 Bohr mag/cell
     absolute magnetization    =     2.48 Bohr mag/cell
[tb_dev] Currently allocated     4.56E-01 Mbytes, locked:    0 /   6
[tb_pin] Currently allocated     0.00E+00 Mbytes, locked:    0 /   0

     iteration # 24     ecut=    40.00 Ry     beta= 0.20
     Davidson diagonalization with overlap

---- Real-time Memory Report at c_bands before calling an iterative solver
          1764 MiB given to the printing process from OS
           862 MiB allocation reported by mallinfo(arena+hblkhd)
         57903 MiB available memory on the node where the printing process lives
     GPU memory used/free/total (MiB): 966 / 15314 / 16280
------------------
     ethr =  4.46E-07,  avg # of iterations =  7.2

     negative rho (up, down):  5.443E-04 1.885E-03

     total cpu time spent up to now is      103.5 secs

     total energy              =    -478.00785226 Ry
     estimated scf accuracy    <       0.00019531 Ry

     total magnetization       =     2.72 Bohr mag/cell
     absolute magnetization    =     2.85 Bohr mag/cell
[tb_dev] Currently allocated     4.56E-01 Mbytes, locked:    0 /   6
[tb_pin] Currently allocated     0.00E+00 Mbytes, locked:    0 /   0

     iteration # 25     ecut=    40.00 Ry     beta= 0.20
     Davidson diagonalization with overlap

---- Real-time Memory Report at c_bands before calling an iterative solver
          1765 MiB given to the printing process from OS
           864 MiB allocation reported by mallinfo(arena+hblkhd)
         57901 MiB available memory on the node where the printing process lives
     GPU memory used/free/total (MiB): 966 / 15314 / 16280
------------------
     ethr =  4.46E-07,  avg # of iterations =  8.0

     negative rho (up, down):  5.430E-04 1.886E-03

     total cpu time spent up to now is      109.3 secs

     total energy              =    -478.00903543 Ry
     estimated scf accuracy    <       0.00069980 Ry

     total magnetization       =     3.05 Bohr mag/cell
     absolute magnetization    =     3.16 Bohr mag/cell
[tb_dev] Currently allocated     4.56E-01 Mbytes, locked:    0 /   6
[tb_pin] Currently allocated     0.00E+00 Mbytes, locked:    0 /   0

     iteration # 26     ecut=    40.00 Ry     beta= 0.20
     Davidson diagonalization with overlap

---- Real-time Memory Report at c_bands before calling an iterative solver
          1767 MiB given to the printing process from OS
           865 MiB allocation reported by mallinfo(arena+hblkhd)
         57901 MiB available memory on the node where the printing process lives
     GPU memory used/free/total (MiB): 966 / 15314 / 16280
------------------
     ethr =  4.46E-07,  avg # of iterations =  1.1

     negative rho (up, down):  5.871E-04 1.843E-03

     total cpu time spent up to now is      111.5 secs

     total energy              =    -478.00885395 Ry
     estimated scf accuracy    <       0.00056928 Ry

     total magnetization       =     3.07 Bohr mag/cell
     absolute magnetization    =     3.18 Bohr mag/cell
[tb_dev] Currently allocated     4.56E-01 Mbytes, locked:    0 /   6
[tb_pin] Currently allocated     0.00E+00 Mbytes, locked:    0 /   0

     iteration # 27     ecut=    40.00 Ry     beta= 0.20
     Davidson diagonalization with overlap

---- Real-time Memory Report at c_bands before calling an iterative solver
          1770 MiB given to the printing process from OS
           867 MiB allocation reported by mallinfo(arena+hblkhd)
         57896 MiB available memory on the node where the printing process lives
     GPU memory used/free/total (MiB): 966 / 15314 / 16280
------------------
     ethr =  4.46E-07,  avg # of iterations =  6.7

     negative rho (up, down):  6.027E-04 1.829E-03

     total cpu time spent up to now is      116.3 secs

     total energy              =    -478.01011295 Ry
     estimated scf accuracy    <       0.00041585 Ry

     total magnetization       =     2.74 Bohr mag/cell
     absolute magnetization    =     2.86 Bohr mag/cell
[tb_dev] Currently allocated     4.56E-01 Mbytes, locked:    0 /   6
[tb_pin] Currently allocated     0.00E+00 Mbytes, locked:    0 /   0

     iteration # 28     ecut=    40.00 Ry     beta= 0.20
     Davidson diagonalization with overlap

---- Real-time Memory Report at c_bands before calling an iterative solver
          1771 MiB given to the printing process from OS
           869 MiB allocation reported by mallinfo(arena+hblkhd)
         57898 MiB available memory on the node where the printing process lives
     GPU memory used/free/total (MiB): 966 / 15314 / 16280
------------------
     ethr =  4.46E-07,  avg # of iterations =  4.8

     negative rho (up, down):  5.562E-04 1.873E-03

     total cpu time spent up to now is      120.2 secs

     total energy              =    -478.00777065 Ry
     estimated scf accuracy    <       0.00068479 Ry

     total magnetization       =     2.58 Bohr mag/cell
     absolute magnetization    =     2.72 Bohr mag/cell
[tb_dev] Currently allocated     4.56E-01 Mbytes, locked:    0 /   6
[tb_pin] Currently allocated     0.00E+00 Mbytes, locked:    0 /   0

     iteration # 29     ecut=    40.00 Ry     beta= 0.20
     Davidson diagonalization with overlap

---- Real-time Memory Report at c_bands before calling an iterative solver
          1773 MiB given to the printing process from OS
           871 MiB allocation reported by mallinfo(arena+hblkhd)
         57897 MiB available memory on the node where the printing process lives
     GPU memory used/free/total (MiB): 966 / 15314 / 16280
------------------
     ethr =  4.46E-07,  avg # of iterations =  6.7

     negative rho (up, down):  5.444E-04 1.884E-03

     total cpu time spent up to now is      125.4 secs

     total energy              =    -478.00885816 Ry
     estimated scf accuracy    <       0.00027312 Ry

     total magnetization       =     2.99 Bohr mag/cell
     absolute magnetization    =     3.10 Bohr mag/cell
[tb_dev] Currently allocated     4.56E-01 Mbytes, locked:    0 /   6
[tb_pin] Currently allocated     0.00E+00 Mbytes, locked:    0 /   0

     iteration # 30     ecut=    40.00 Ry     beta= 0.20
     Davidson diagonalization with overlap

---- Real-time Memory Report at c_bands before calling an iterative solver
          1776 MiB given to the printing process from OS
           872 MiB allocation reported by mallinfo(arena+hblkhd)
         57893 MiB available memory on the node where the printing process lives
     GPU memory used/free/total (MiB): 966 / 15314 / 16280
------------------
     ethr =  4.46E-07,  avg # of iterations =  4.9

     negative rho (up, down):  5.606E-04 1.869E-03

     total cpu time spent up to now is      129.2 secs

     total energy              =    -478.00917183 Ry
     estimated scf accuracy    <       0.00027286 Ry

     total magnetization       =     3.09 Bohr mag/cell
     absolute magnetization    =     3.19 Bohr mag/cell
[tb_dev] Currently allocated     4.56E-01 Mbytes, locked:    0 /   6
[tb_pin] Currently allocated     0.00E+00 Mbytes, locked:    0 /   0

     iteration # 31     ecut=    40.00 Ry     beta= 0.20
     Davidson diagonalization with overlap

---- Real-time Memory Report at c_bands before calling an iterative solver
          1777 MiB given to the printing process from OS
           874 MiB allocation reported by mallinfo(arena+hblkhd)
         57893 MiB available memory on the node where the printing process lives
     GPU memory used/free/total (MiB): 966 / 15314 / 16280
------------------
     ethr =  4.46E-07,  avg # of iterations =  3.9

     negative rho (up, down):  5.579E-04 1.871E-03

     total cpu time spent up to now is      132.6 secs

     total energy              =    -478.00927320 Ry
     estimated scf accuracy    <       0.00029751 Ry

     total magnetization       =     2.97 Bohr mag/cell
     absolute magnetization    =     3.08 Bohr mag/cell
[tb_dev] Currently allocated     4.56E-01 Mbytes, locked:    0 /   6
[tb_pin] Currently allocated     0.00E+00 Mbytes, locked:    0 /   0

     iteration # 32     ecut=    40.00 Ry     beta= 0.20
     Davidson diagonalization with overlap

---- Real-time Memory Report at c_bands before calling an iterative solver
          1780 MiB given to the printing process from OS
           876 MiB allocation reported by mallinfo(arena+hblkhd)
         57889 MiB available memory on the node where the printing process lives
     GPU memory used/free/total (MiB): 966 / 15314 / 16280
------------------
     ethr =  4.46E-07,  avg # of iterations =  1.0

     negative rho (up, down):  6.983E-04 1.736E-03

     total cpu time spent up to now is      134.9 secs

     total energy              =    -478.00144617 Ry
     estimated scf accuracy    <       0.00029972 Ry

     total magnetization       =     2.98 Bohr mag/cell
     absolute magnetization    =     3.09 Bohr mag/cell
[tb_dev] Currently allocated     4.56E-01 Mbytes, locked:    0 /   6
[tb_pin] Currently allocated     0.00E+00 Mbytes, locked:    0 /   0

     iteration # 33     ecut=    40.00 Ry     beta= 0.20
     Davidson diagonalization with overlap

---- Real-time Memory Report at c_bands before calling an iterative solver
          1782 MiB given to the printing process from OS
           878 MiB allocation reported by mallinfo(arena+hblkhd)
         57884 MiB available memory on the node where the printing process lives
     GPU memory used/free/total (MiB): 966 / 15314 / 16280
------------------
     c_bands:  1 eigenvalues not converged
     c_bands:  1 eigenvalues not converged
     c_bands:  1 eigenvalues not converged
     c_bands:  1 eigenvalues not converged
     ethr =  4.46E-07,  avg # of iterations = 10.8

     negative rho (up, down):  4.914E-04 1.935E-03

     total cpu time spent up to now is      141.7 secs

     total energy              =    -477.97693719 Ry
     estimated scf accuracy    <       0.00181897 Ry

     total magnetization       =     1.68 Bohr mag/cell
     absolute magnetization    =     2.28 Bohr mag/cell
[tb_dev] Currently allocated     4.56E-01 Mbytes, locked:    0 /   6
[tb_pin] Currently allocated     0.00E+00 Mbytes, locked:    0 /   0

     iteration # 34     ecut=    40.00 Ry     beta= 0.20
     Davidson diagonalization with overlap

---- Real-time Memory Report at c_bands before calling an iterative solver
          1783 MiB given to the printing process from OS
           879 MiB allocation reported by mallinfo(arena+hblkhd)
         57887 MiB available memory on the node where the printing process lives
     GPU memory used/free/total (MiB): 966 / 15314 / 16280
------------------
     c_bands:  1 eigenvalues not converged
     c_bands:  1 eigenvalues not converged
     c_bands:  1 eigenvalues not converged
     c_bands:  1 eigenvalues not converged
     c_bands:  1 eigenvalues not converged
     c_bands:  1 eigenvalues not converged
     c_bands:  1 eigenvalues not converged
     c_bands:  1 eigenvalues not converged
     c_bands:  1 eigenvalues not converged
     ethr =  4.46E-07,  avg # of iterations = 11.9

     negative rho (up, down):  5.876E-04 1.843E-03

     total cpu time spent up to now is      149.6 secs

     total energy              =    -478.00482491 Ry
     estimated scf accuracy    <       0.00060097 Ry

     total magnetization       =     3.40 Bohr mag/cell
     absolute magnetization    =     3.50 Bohr mag/cell
[tb_dev] Currently allocated     4.56E-01 Mbytes, locked:    0 /   6
[tb_pin] Currently allocated     0.00E+00 Mbytes, locked:    0 /   0

     iteration # 35     ecut=    40.00 Ry     beta= 0.20
     Davidson diagonalization with overlap

---- Real-time Memory Report at c_bands before calling an iterative solver
          1785 MiB given to the printing process from OS
           881 MiB allocation reported by mallinfo(arena+hblkhd)
         57884 MiB available memory on the node where the printing process lives
     GPU memory used/free/total (MiB): 966 / 15314 / 16280
------------------
     c_bands:  1 eigenvalues not converged
     c_bands:  1 eigenvalues not converged
     c_bands:  1 eigenvalues not converged
     ethr =  4.46E-07,  avg # of iterations =  8.9

     negative rho (up, down):  6.294E-04 1.803E-03

     total cpu time spent up to now is      155.7 secs

     total energy              =    -478.00978641 Ry
     estimated scf accuracy    <       0.00052763 Ry

     total magnetization       =     2.71 Bohr mag/cell
     absolute magnetization    =     2.84 Bohr mag/cell
[tb_dev] Currently allocated     4.56E-01 Mbytes, locked:    0 /   6
[tb_pin] Currently allocated     0.00E+00 Mbytes, locked:    0 /   0

     iteration # 36     ecut=    40.00 Ry     beta= 0.20
     Davidson diagonalization with overlap

---- Real-time Memory Report at c_bands before calling an iterative solver
          1788 MiB given to the printing process from OS
           883 MiB allocation reported by mallinfo(arena+hblkhd)
         57884 MiB available memory on the node where the printing process lives
     GPU memory used/free/total (MiB): 966 / 15314 / 16280
------------------
     ethr =  4.46E-07,  avg # of iterations =  7.8

     negative rho (up, down):  6.295E-04 1.803E-03

     total cpu time spent up to now is      161.1 secs

     total energy              =    -478.01122213 Ry
     estimated scf accuracy    <       0.00157757 Ry

     total magnetization       =     2.27 Bohr mag/cell
     absolute magnetization    =     2.49 Bohr mag/cell
[tb_dev] Currently allocated     4.56E-01 Mbytes, locked:    0 /   6
[tb_pin] Currently allocated     0.00E+00 Mbytes, locked:    0 /   0

     iteration # 37     ecut=    40.00 Ry     beta= 0.20
     Davidson diagonalization with overlap

---- Real-time Memory Report at c_bands before calling an iterative solver
          1789 MiB given to the printing process from OS
           885 MiB allocation reported by mallinfo(arena+hblkhd)
         57882 MiB available memory on the node where the printing process lives
     GPU memory used/free/total (MiB): 966 / 15314 / 16280
------------------
     ethr =  4.46E-07,  avg # of iterations =  1.2

     negative rho (up, down):  5.337E-04 1.895E-03

     total cpu time spent up to now is      163.4 secs

     total energy              =    -478.00173200 Ry
     estimated scf accuracy    <       0.00119750 Ry

     total magnetization       =     2.29 Bohr mag/cell
     absolute magnetization    =     2.50 Bohr mag/cell
[tb_dev] Currently allocated     4.56E-01 Mbytes, locked:    0 /   6
[tb_pin] Currently allocated     0.00E+00 Mbytes, locked:    0 /   0

     iteration # 38     ecut=    40.00 Ry     beta= 0.20
     Davidson diagonalization with overlap

---- Real-time Memory Report at c_bands before calling an iterative solver
          1790 MiB given to the printing process from OS
           886 MiB allocation reported by mallinfo(arena+hblkhd)
         57877 MiB available memory on the node where the printing process lives
     GPU memory used/free/total (MiB): 966 / 15314 / 16280
------------------
     c_bands:  1 eigenvalues not converged
     c_bands:  1 eigenvalues not converged
     c_bands:  1 eigenvalues not converged
     c_bands:  1 eigenvalues not converged
     c_bands:  1 eigenvalues not converged
     ethr =  4.46E-07,  avg # of iterations =  9.2

     negative rho (up, down):  6.004E-04 1.831E-03

     total cpu time spent up to now is      169.6 secs

     total energy              =    -478.00745608 Ry
     estimated scf accuracy    <       0.00029770 Ry

     total magnetization       =     3.15 Bohr mag/cell
     absolute magnetization    =     3.25 Bohr mag/cell
[tb_dev] Currently allocated     4.56E-01 Mbytes, locked:    0 /   6
[tb_pin] Currently allocated     0.00E+00 Mbytes, locked:    0 /   0

     iteration # 39     ecut=    40.00 Ry     beta= 0.20
     Davidson diagonalization with overlap

---- Real-time Memory Report at c_bands before calling an iterative solver
          1793 MiB given to the printing process from OS
           888 MiB allocation reported by mallinfo(arena+hblkhd)
         57878 MiB available memory on the node where the printing process lives
     GPU memory used/free/total (MiB): 966 / 15314 / 16280
------------------
     ethr =  4.46E-07,  avg # of iterations =  7.6

     negative rho (up, down):  6.316E-04 1.801E-03

     total cpu time spent up to now is      175.0 secs

     total energy              =    -478.01046820 Ry
     estimated scf accuracy    <       0.00071597 Ry

     total magnetization       =     2.59 Bohr mag/cell
     absolute magnetization    =     2.73 Bohr mag/cell
[tb_dev] Currently allocated     4.56E-01 Mbytes, locked:    0 /   6
[tb_pin] Currently allocated     0.00E+00 Mbytes, locked:    0 /   0

     iteration # 40     ecut=    40.00 Ry     beta= 0.20
     Davidson diagonalization with overlap

---- Real-time Memory Report at c_bands before calling an iterative solver
          1794 MiB given to the printing process from OS
           890 MiB allocation reported by mallinfo(arena+hblkhd)
         57877 MiB available memory on the node where the printing process lives
     GPU memory used/free/total (MiB): 966 / 15314 / 16280
------------------
     ethr =  4.46E-07,  avg # of iterations =  7.4

     negative rho (up, down):  6.219E-04 1.810E-03

     total cpu time spent up to now is      180.4 secs

     total energy              =    -478.01103905 Ry
     estimated scf accuracy    <       0.00142947 Ry

     total magnetization       =     2.24 Bohr mag/cell
     absolute magnetization    =     2.47 Bohr mag/cell
[tb_dev] Currently allocated     4.56E-01 Mbytes, locked:    0 /   6
[tb_pin] Currently allocated     0.00E+00 Mbytes, locked:    0 /   0

     iteration # 41     ecut=    40.00 Ry     beta= 0.20
     Davidson diagonalization with overlap

---- Real-time Memory Report at c_bands before calling an iterative solver
          1796 MiB given to the printing process from OS
           892 MiB allocation reported by mallinfo(arena+hblkhd)
         57872 MiB available memory on the node where the printing process lives
     GPU memory used/free/total (MiB): 966 / 15314 / 16280
------------------
     ethr =  4.46E-07,  avg # of iterations =  1.4

     negative rho (up, down):  6.198E-04 1.812E-03

     total cpu time spent up to now is      182.7 secs

     total energy              =    -478.01103080 Ry
     estimated scf accuracy    <       0.00084822 Ry

     total magnetization       =     2.35 Bohr mag/cell
     absolute magnetization    =     2.54 Bohr mag/cell
[tb_dev] Currently allocated     4.56E-01 Mbytes, locked:    0 /   6
[tb_pin] Currently allocated     0.00E+00 Mbytes, locked:    0 /   0

     iteration # 42     ecut=    40.00 Ry     beta= 0.20
     Davidson diagonalization with overlap

---- Real-time Memory Report at c_bands before calling an iterative solver
          1799 MiB given to the printing process from OS
           893 MiB allocation reported by mallinfo(arena+hblkhd)
         57872 MiB available memory on the node where the printing process lives
     GPU memory used/free/total (MiB): 966 / 15314 / 16280
------------------
     ethr =  4.46E-07,  avg # of iterations =  1.0

     negative rho (up, down):  6.719E-04 1.762E-03

     total cpu time spent up to now is      184.9 secs

     total energy              =    -478.01127428 Ry
     estimated scf accuracy    <       0.00077000 Ry

     total magnetization       =     2.37 Bohr mag/cell
     absolute magnetization    =     2.56 Bohr mag/cell
[tb_dev] Currently allocated     4.56E-01 Mbytes, locked:    0 /   6
[tb_pin] Currently allocated     0.00E+00 Mbytes, locked:    0 /   0

     iteration # 43     ecut=    40.00 Ry     beta= 0.20
     Davidson diagonalization with overlap

---- Real-time Memory Report at c_bands before calling an iterative solver
          1800 MiB given to the printing process from OS
           895 MiB allocation reported by mallinfo(arena+hblkhd)
         57870 MiB available memory on the node where the printing process lives
     GPU memory used/free/total (MiB): 966 / 15314 / 16280
------------------
     c_bands:  1 eigenvalues not converged
     ethr =  4.46E-07,  avg # of iterations =  8.0

     negative rho (up, down):  4.808E-04 1.945E-03

     total cpu time spent up to now is      190.4 secs

     total energy              =    -477.97710509 Ry
     estimated scf accuracy    <       0.00238844 Ry

     total magnetization       =     1.79 Bohr mag/cell
     absolute magnetization    =     2.33 Bohr mag/cell
[tb_dev] Currently allocated     4.56E-01 Mbytes, locked:    0 /   6
[tb_pin] Currently allocated     0.00E+00 Mbytes, locked:    0 /   0

     iteration # 44     ecut=    40.00 Ry     beta= 0.20
     Davidson diagonalization with overlap

---- Real-time Memory Report at c_bands before calling an iterative solver
          1801 MiB given to the printing process from OS
           897 MiB allocation reported by mallinfo(arena+hblkhd)
         57867 MiB available memory on the node where the printing process lives
     GPU memory used/free/total (MiB): 966 / 15314 / 16280
------------------
     c_bands:  1 eigenvalues not converged
     c_bands:  1 eigenvalues not converged
     c_bands:  1 eigenvalues not converged
     c_bands:  1 eigenvalues not converged
     c_bands:  1 eigenvalues not converged
     c_bands:  1 eigenvalues not converged
     ethr =  4.46E-07,  avg # of iterations = 11.9

     negative rho (up, down):  5.129E-04 1.914E-03

     total cpu time spent up to now is      197.8 secs

     total energy              =    -478.00779160 Ry
     estimated scf accuracy    <       0.00058918 Ry

     total magnetization       =     3.46 Bohr mag/cell
     absolute magnetization    =     3.56 Bohr mag/cell
[tb_dev] Currently allocated     4.56E-01 Mbytes, locked:    0 /   6
[tb_pin] Currently allocated     0.00E+00 Mbytes, locked:    0 /   0

     iteration # 45     ecut=    40.00 Ry     beta= 0.20
     Davidson diagonalization with overlap

---- Real-time Memory Report at c_bands before calling an iterative solver
          1804 MiB given to the printing process from OS
           898 MiB allocation reported by mallinfo(arena+hblkhd)
         57863 MiB available memory on the node where the printing process lives
     GPU memory used/free/total (MiB): 966 / 15314 / 16280
------------------
     ethr =  4.46E-07,  avg # of iterations =  6.0

     negative rho (up, down):  5.231E-04 1.905E-03

     total cpu time spent up to now is      202.2 secs

     total energy              =    -478.00855979 Ry
     estimated scf accuracy    <       0.00028636 Ry

     total magnetization       =     3.28 Bohr mag/cell
     absolute magnetization    =     3.38 Bohr mag/cell
[tb_dev] Currently allocated     4.56E-01 Mbytes, locked:    0 /   6
[tb_pin] Currently allocated     0.00E+00 Mbytes, locked:    0 /   0

     iteration # 46     ecut=    40.00 Ry     beta= 0.20
     Davidson diagonalization with overlap

---- Real-time Memory Report at c_bands before calling an iterative solver
          1806 MiB given to the printing process from OS
           900 MiB allocation reported by mallinfo(arena+hblkhd)
         57865 MiB available memory on the node where the printing process lives
     GPU memory used/free/total (MiB): 966 / 15314 / 16280
------------------
     ethr =  4.46E-07,  avg # of iterations =  3.4

     negative rho (up, down):  5.090E-04 1.918E-03

     total cpu time spent up to now is      205.3 secs

     total energy              =    -478.00832858 Ry
     estimated scf accuracy    <       0.00024978 Ry

     total magnetization       =     3.21 Bohr mag/cell
     absolute magnetization    =     3.32 Bohr mag/cell
[tb_dev] Currently allocated     4.56E-01 Mbytes, locked:    0 /   6
[tb_pin] Currently allocated     0.00E+00 Mbytes, locked:    0 /   0

     iteration # 47     ecut=    40.00 Ry     beta= 0.20
     Davidson diagonalization with overlap

---- Real-time Memory Report at c_bands before calling an iterative solver
          1807 MiB given to the printing process from OS
           902 MiB allocation reported by mallinfo(arena+hblkhd)
         57861 MiB available memory on the node where the printing process lives
     GPU memory used/free/total (MiB): 966 / 15314 / 16280
------------------
     ethr =  4.46E-07,  avg # of iterations =  2.3

     negative rho (up, down):  5.233E-04 1.905E-03

     total cpu time spent up to now is      208.2 secs

     total energy              =    -478.00841956 Ry
     estimated scf accuracy    <       0.00036846 Ry

     total magnetization       =     3.28 Bohr mag/cell
     absolute magnetization    =     3.38 Bohr mag/cell
[tb_dev] Currently allocated     4.56E-01 Mbytes, locked:    0 /   6
[tb_pin] Currently allocated     0.00E+00 Mbytes, locked:    0 /   0

     iteration # 48     ecut=    40.00 Ry     beta= 0.20
     Davidson diagonalization with overlap

[...]
[tb_pin] Currently allocated     0.00E+00 Mbytes, locked:    0 /   0

     iteration # 66     ecut=    40.00 Ry     beta= 0.20
     Davidson diagonalization with overlap

---- Real-time Memory Report at c_bands before calling an iterative solver
          1845 MiB given to the printing process from OS
           936 MiB allocation reported by mallinfo(arena+hblkhd)
         57820 MiB available memory on the node where the printing process lives
     GPU memory used/free/total (MiB): 966 / 15314 / 16280
------------------
     ethr =  3.45E-07,  avg # of iterations =  5.5

     negative rho (up, down):  5.090E-04 1.919E-03

     total cpu time spent up to now is      295.3 secs

     total energy              =    -478.00801620 Ry
     estimated scf accuracy    <       0.00034256 Ry

     total magnetization       =     3.31 Bohr mag/cell
     absolute magnetization    =     3.41 Bohr mag/cell
[tb_dev] Currently allocated     4.56E-01 Mbytes, locked:    0 /   6
[tb_pin] Currently allocated     0.00E+00 Mbytes, locked:    0 /   0

     iteration # 67     ecut=    40.00 Ry     beta= 0.20
     Davidson diagonalization with overlap

---- Real-time Memory Report at c_bands before calling an iterative solver
          1847 MiB given to the printing process from OS
           938 MiB allocation reported by mallinfo(arena+hblkhd)
         57817 MiB available memory on the node where the printing process lives
     GPU memory used/free/total (MiB): 966 / 15314 / 16280
------------------
     ethr =  3.45E-07,  avg # of iterations =  1.1

     negative rho (up, down):  4.932E-04 1.934E-03

     total cpu time spent up to now is      297.7 secs

     total energy              =    -478.00735682 Ry
     estimated scf accuracy    <       0.00036729 Ry

     total magnetization       =     3.33 Bohr mag/cell
     absolute magnetization    =     3.43 Bohr mag/cell
[tb_dev] Currently allocated     4.56E-01 Mbytes, locked:    0 /   6
[tb_pin] Currently allocated     0.00E+00 Mbytes, locked:    0 /   0

     iteration # 68     ecut=    40.00 Ry     beta= 0.20
     Davidson diagonalization with overlap

---- Real-time Memory Report at c_bands before calling an iterative solver
          1849 MiB given to the printing process from OS
           940 MiB allocation reported by mallinfo(arena+hblkhd)
         57796 MiB available memory on the node where the printing process lives
     GPU memory used/free/total (MiB): 966 / 15314 / 16280
------------------
     ethr =  3.45E-07,  avg # of iterations =  5.7

     negative rho (up, down):  4.672E-04 1.959E-03

     total cpu time spent up to now is      302.0 secs

     total energy              =    -478.00605724 Ry
     estimated scf accuracy    <       0.00055227 Ry

     total magnetization       =     3.41 Bohr mag/cell
     absolute magnetization    =     3.51 Bohr mag/cell
[tb_dev] Currently allocated     4.56E-01 Mbytes, locked:    0 /   6
[tb_pin] Currently allocated     0.00E+00 Mbytes, locked:    0 /   0

     iteration # 69     ecut=    40.00 Ry     beta= 0.20
     Davidson diagonalization with overlap

---- Real-time Memory Report at c_bands before calling an iterative solver
          1852 MiB given to the printing process from OS
           943 MiB allocation reported by mallinfo(arena+hblkhd)
         57801 MiB available memory on the node where the printing process lives
     GPU memory used/free/total (MiB): 966 / 15314 / 16280
------------------
     ethr =  3.45E-07,  avg # of iterations =  6.2

     negative rho (up, down):  5.252E-04 1.903E-03

     total cpu time spent up to now is      306.5 secs

     total energy              =    -478.00672747 Ry
     estimated scf accuracy    <       0.00092646 Ry

     total magnetization       =     3.55 Bohr mag/cell
     absolute magnetization    =     3.65 Bohr mag/cell
[tb_dev] Currently allocated     4.56E-01 Mbytes, locked:    0 /   6
[tb_pin] Currently allocated     0.00E+00 Mbytes, locked:    0 /   0

     iteration # 70     ecut=    40.00 Ry     beta= 0.20
     Davidson diagonalization with overlap

---- Real-time Memory Report at c_bands before calling an iterative solver
          1855 MiB given to the printing process from OS
           945 MiB allocation reported by mallinfo(arena+hblkhd)
         57800 MiB available memory on the node where the printing process lives
     GPU memory used/free/total (MiB): 966 / 15314 / 16280
------------------
     ethr =  3.45E-07,  avg # of iterations =  7.4

     negative rho (up, down):  5.124E-04 1.915E-03

     total cpu time spent up to now is      311.8 secs

     total energy              =    -478.00810929 Ry
     estimated scf accuracy    <       0.00025505 Ry

     total magnetization       =     3.23 Bohr mag/cell
     absolute magnetization    =     3.33 Bohr mag/cell
[tb_dev] Currently allocated     4.56E-01 Mbytes, locked:    0 /   6
[tb_pin] Currently allocated     0.00E+00 Mbytes, locked:    0 /   0

     iteration # 71     ecut=    40.00 Ry     beta= 0.20
     Davidson diagonalization with overlap

---- Real-time Memory Report at c_bands before calling an iterative solver
          1855 MiB given to the printing process from OS
           947 MiB allocation reported by mallinfo(arena+hblkhd)
         57804 MiB available memory on the node where the printing process lives
     GPU memory used/free/total (MiB): 966 / 15314 / 16280
------------------
     ethr =  3.45E-07,  avg # of iterations =  2.6

     negative rho (up, down):  6.477E-04 1.785E-03

     total cpu time spent up to now is      314.6 secs

     total energy              =    -477.99946049 Ry
     estimated scf accuracy    <       0.00030857 Ry

     total magnetization       =     3.30 Bohr mag/cell
     absolute magnetization    =     3.40 Bohr mag/cell
[tb_dev] Currently allocated     4.56E-01 Mbytes, locked:    0 /   6
[tb_pin] Currently allocated     0.00E+00 Mbytes, locked:    0 /   0

     iteration # 72     ecut=    40.00 Ry     beta= 0.20
     Davidson diagonalization with overlap

---- Real-time Memory Report at c_bands before calling an iterative solver
          1858 MiB given to the printing process from OS
           949 MiB allocation reported by mallinfo(arena+hblkhd)
         57800 MiB available memory on the node where the printing process lives
     GPU memory used/free/total (MiB): 966 / 15314 / 16280
------------------
     c_bands:  1 eigenvalues not converged
     c_bands:  1 eigenvalues not converged
     c_bands:  1 eigenvalues not converged
     ethr =  3.45E-07,  avg # of iterations = 11.2

     negative rho (up, down):  6.625E-04 1.771E-03

     total cpu time spent up to now is      321.7 secs

     total energy              =    -478.01258751 Ry
     estimated scf accuracy    <       0.00129532 Ry

     total magnetization       =     2.10 Bohr mag/cell
     absolute magnetization    =     2.40 Bohr mag/cell
[tb_dev] Currently allocated     4.56E-01 Mbytes, locked:    0 /   6
[tb_pin] Currently allocated     0.00E+00 Mbytes, locked:    0 /   0

     iteration # 73     ecut=    40.00 Ry     beta= 0.20
     Davidson diagonalization with overlap

---- Real-time Memory Report at c_bands before calling an iterative solver
          1861 MiB given to the printing process from OS
           952 MiB allocation reported by mallinfo(arena+hblkhd)
         57801 MiB available memory on the node where the printing process lives
     GPU memory used/free/total (MiB): 966 / 15314 / 16280
------------------
     c_bands:  1 eigenvalues not converged
     ethr =  3.45E-07,  avg # of iterations =  5.8

     negative rho (up, down):  5.278E-04 1.901E-03

     total cpu time spent up to now is      326.0 secs

     total energy              =    -477.99034666 Ry
     estimated scf accuracy    <       0.00176564 Ry

     total magnetization       =     1.92 Bohr mag/cell
     absolute magnetization    =     2.34 Bohr mag/cell
[tb_dev] Currently allocated     4.56E-01 Mbytes, locked:    0 /   6
[tb_pin] Currently allocated     0.00E+00 Mbytes, locked:    0 /   0

     iteration # 74     ecut=    40.00 Ry     beta= 0.20
     Davidson diagonalization with overlap

---- Real-time Memory Report at c_bands before calling an iterative solver
          1863 MiB given to the printing process from OS
           955 MiB allocation reported by mallinfo(arena+hblkhd)
         57799 MiB available memory on the node where the printing process lives
     GPU memory used/free/total (MiB): 966 / 15314 / 16280
------------------
     c_bands:  1 eigenvalues not converged
     c_bands:  1 eigenvalues not converged
     c_bands:  1 eigenvalues not converged
     c_bands:  1 eigenvalues not converged
     c_bands:  1 eigenvalues not converged
     c_bands:  1 eigenvalues not converged
     ethr =  3.45E-07,  avg # of iterations = 11.5

     negative rho (up, down):  4.563E-04 1.969E-03

     total cpu time spent up to now is      333.1 secs

     total energy              =    -478.00281322 Ry
     estimated scf accuracy    <       0.00025926 Ry

     total magnetization       =     3.24 Bohr mag/cell
     absolute magnetization    =     3.34 Bohr mag/cell
[tb_dev] Currently allocated     4.56E-01 Mbytes, locked:    0 /   6
[tb_pin] Currently allocated     0.00E+00 Mbytes, locked:    0 /   0

     iteration # 75     ecut=    40.00 Ry     beta= 0.20
     Davidson diagonalization with overlap

---- Real-time Memory Report at c_bands before calling an iterative solver
          1865 MiB given to the printing process from OS
           956 MiB allocation reported by mallinfo(arena+hblkhd)
         57798 MiB available memory on the node where the printing process lives
     GPU memory used/free/total (MiB): 966 / 15314 / 16280
------------------
     c_bands:  1 eigenvalues not converged
     ethr =  3.45E-07,  avg # of iterations =  9.0

     negative rho (up, down):  4.786E-04 1.948E-03

     total cpu time spent up to now is      339.3 secs

     total energy              =    -478.00646153 Ry
     estimated scf accuracy    <       0.00117770 Ry

     total magnetization       =     3.62 Bohr mag/cell
     absolute magnetization    =     3.71 Bohr mag/cell
[tb_dev] Currently allocated     4.56E-01 Mbytes, locked:    0 /   6
[tb_pin] Currently allocated     0.00E+00 Mbytes, locked:    0 /   0

     iteration # 76     ecut=    40.00 Ry     beta= 0.20
     Davidson diagonalization with overlap

---- Real-time Memory Report at c_bands before calling an iterative solver
          1868 MiB given to the printing process from OS
           958 MiB allocation reported by mallinfo(arena+hblkhd)
         57795 MiB available memory on the node where the printing process lives
     GPU memory used/free/total (MiB): 966 / 15314 / 16280
------------------
     ethr =  3.45E-07,  avg # of iterations =  5.1

     negative rho (up, down):  4.463E-04 1.979E-03

     total cpu time spent up to now is      343.3 secs

     total energy              =    -478.00394206 Ry
     estimated scf accuracy    <       0.00077917 Ry

     total magnetization       =     3.51 Bohr mag/cell
     absolute magnetization    =     3.61 Bohr mag/cell
[tb_dev] Currently allocated     4.56E-01 Mbytes, locked:    0 /   6
[tb_pin] Currently allocated     0.00E+00 Mbytes, locked:    0 /   0

     iteration # 77     ecut=    40.00 Ry     beta= 0.20
     Davidson diagonalization with overlap

---- Real-time Memory Report at c_bands before calling an iterative solver
          1869 MiB given to the printing process from OS
           960 MiB allocation reported by mallinfo(arena+hblkhd)
         57793 MiB available memory on the node where the printing process lives
     GPU memory used/free/total (MiB): 966 / 15314 / 16280
------------------
     c_bands:  1 eigenvalues not converged
     ethr =  3.45E-07,  avg # of iterations =  7.3

     negative rho (up, down):  4.424E-04 1.983E-03

     total cpu time spent up to now is      348.4 secs

     total energy              =    -478.00425482 Ry
     estimated scf accuracy    <       0.00154393 Ry

     total magnetization       =     3.67 Bohr mag/cell
     absolute magnetization    =     3.77 Bohr mag/cell
[tb_dev] Currently allocated     4.56E-01 Mbytes, locked:    0 /   6
[tb_pin] Currently allocated     0.00E+00 Mbytes, locked:    0 /   0

     iteration # 78     ecut=    40.00 Ry     beta= 0.20
     Davidson diagonalization with overlap

---- Real-time Memory Report at c_bands before calling an iterative solver
          1871 MiB given to the printing process from OS
           962 MiB allocation reported by mallinfo(arena+hblkhd)
         57790 MiB available memory on the node where the printing process lives
     GPU memory used/free/total (MiB): 966 / 15314 / 16280
------------------
     ethr =  3.45E-07,  avg # of iterations =  2.3

     negative rho (up, down):  4.265E-04 1.998E-03

     total cpu time spent up to now is      351.1 secs

     total energy              =    -478.00340658 Ry
     estimated scf accuracy    <       0.00169538 Ry

     total magnetization       =     3.70 Bohr mag/cell
     absolute magnetization    =     3.79 Bohr mag/cell
[tb_dev] Currently allocated     4.56E-01 Mbytes, locked:    0 /   6
[tb_pin] Currently allocated     0.00E+00 Mbytes, locked:    0 /   0

     iteration # 79     ecut=    40.00 Ry     beta= 0.20
     Davidson diagonalization with overlap

---- Real-time Memory Report at c_bands before calling an iterative solver
          1875 MiB given to the printing process from OS
           965 MiB allocation reported by mallinfo(arena+hblkhd)
         57787 MiB available memory on the node where the printing process lives
     GPU memory used/free/total (MiB): 966 / 15314 / 16280
------------------
     ethr =  3.45E-07,  avg # of iterations =  5.2

     negative rho (up, down):  4.219E-04 2.003E-03

     total cpu time spent up to now is      355.1 secs

     total energy              =    -478.00298782 Ry
     estimated scf accuracy    <       0.00204939 Ry

     total magnetization       =     3.76 Bohr mag/cell
     absolute magnetization    =     3.85 Bohr mag/cell
[tb_dev] Currently allocated     4.56E-01 Mbytes, locked:    0 /   6
[tb_pin] Currently allocated     0.00E+00 Mbytes, locked:    0 /   0

     iteration # 80     ecut=    40.00 Ry     beta= 0.20
     Davidson diagonalization with overlap

---- Real-time Memory Report at c_bands before calling an iterative solver
          1876 MiB given to the printing process from OS
           967 MiB allocation reported by mallinfo(arena+hblkhd)
         57789 MiB available memory on the node where the printing process lives
     GPU memory used/free/total (MiB): 966 / 15314 / 16280
------------------
     ethr =  3.45E-07,  avg # of iterations =  2.5

     negative rho (up, down):  4.243E-04 2.000E-03

     total cpu time spent up to now is      357.8 secs

     total energy              =    -478.00332343 Ry
     estimated scf accuracy    <       0.00220148 Ry

     total magnetization       =     3.78 Bohr mag/cell
     absolute magnetization    =     3.87 Bohr mag/cell

     End of self-consistent calculation

     convergence NOT achieved after  80 iterations: stopping

     Writing config to output data dir ./out/aiida.save/
 
     init_run     :     18.15s CPU      2.77s WALL (       1 calls)
     electrons    :    738.87s CPU    353.92s WALL (       1 calls)

     Called by init_run:
     wfcinit      :      0.17s CPU      0.17s WALL (       1 calls)
                                        0.17s GPU  (       1 calls)
     potinit      :      7.30s CPU      0.75s WALL (       1 calls)
     hinit0       :      7.27s CPU      1.24s WALL (       1 calls)

     Called by electrons:
     c_bands      :    384.82s CPU    293.07s WALL (      81 calls)
     sum_band     :     24.86s CPU     30.83s WALL (      81 calls)
     v_of_rho     :      7.11s CPU      0.66s WALL (      81 calls)
     v_h          :      1.06s CPU      0.10s WALL (      81 calls)
     v_xc         :      6.04s CPU      0.56s WALL (      81 calls)
     newd         :     25.10s CPU      2.62s WALL (      81 calls)
                                        2.62s GPU  (      81 calls)
     PAW_pot      :    292.91s CPU     26.61s WALL (      81 calls)
     mix_rho      :      7.85s CPU      0.77s WALL (      81 calls)

     Called by c_bands:
     init_us_2    :     31.80s CPU     27.18s WALL (   23328 calls)
     init_us_2:gp :     31.28s CPU     26.78s WALL (   23328 calls)
     cegterg      :    341.80s CPU    262.09s WALL (   11664 calls)

     Called by sum_band:
     sum_band:wei :      0.29s CPU      0.31s WALL (      81 calls)
                                        0.30s GPU  (      81 calls)
     sum_band:loo :     21.51s CPU     27.12s WALL (      81 calls)
                                       27.12s GPU  (      81 calls)
     sum_band:buf :      2.22s CPU      2.75s WALL (   11664 calls)
                                        2.68s GPU  (   11664 calls)
     sum_band:ini :     10.07s CPU     13.10s WALL (   11664 calls)
                                       13.04s GPU  (   11664 calls)
     sum_band:cal :      0.35s CPU      0.79s WALL (   11664 calls)
                                        0.72s GPU  (   11664 calls)
     sum_band:bec :      1.96s CPU      2.47s WALL (   11664 calls)
                                        2.39s GPU  (   11664 calls)
     addusdens    :      2.60s CPU      2.92s WALL (      81 calls)
                                        2.92s GPU  (      81 calls)
     addusd:skk   :      0.01s CPU      0.02s WALL (     324 calls)
                                        0.01s GPU  (     324 calls)

     Called by *egterg:
     cdiaghg      :    171.73s CPU    135.74s WALL (   76660 calls)
                                      135.24s GPU  (   76660 calls)
     cegterg:over :      9.48s CPU      7.46s WALL (   65284 calls)
     cegterg:upda :     18.92s CPU     14.77s WALL (   65284 calls)
     cegterg:last :      3.71s CPU      2.94s WALL (   33399 calls)
     h_psi        :     99.32s CPU     73.76s WALL (   76948 calls)
                                       73.35s GPU  (   76948 calls)
     s_psi        :      8.41s CPU      8.68s WALL (   76948 calls)
                                        8.17s GPU  (   76948 calls)
     g_psi        :      0.64s CPU      1.27s WALL (   65284 calls)
                                        0.87s GPU  (   65284 calls)

     Called by h_psi:
     h_psi:calbec :      3.35s CPU      5.67s WALL (   76948 calls)
                                        5.20s GPU  (   76948 calls)
     vloc_psi     :     72.34s CPU     53.67s WALL (   76948 calls)
                                       53.22s GPU  (   76948 calls)
     add_vuspsi   :     11.00s CPU      9.78s WALL (   76948 calls)
                                        9.32s GPU  (   76948 calls)

     General routines
     calbec       :      2.78s CPU      2.17s WALL (   88612 calls)
     fft          :      2.47s CPU      0.27s WALL (    2025 calls)
                                        0.23s GPU  (    1863 calls)
     ffts         :      0.02s CPU      0.02s WALL (     324 calls)
                                        0.01s GPU  (     162 calls)
     fftw         :      6.47s CPU     27.70s WALL (  232234 calls)
                                       26.42s GPU  (  232234 calls)
     interpolate  :      1.13s CPU      0.10s WALL (     162 calls)
     davcio       :      1.26s CPU      0.20s WALL (     306 calls)
 
     Parallel routines

     PAW routines
     PAW_pot      :    292.91s CPU     26.61s WALL (      81 calls)
     PAW_symme    :      0.37s CPU      0.06s WALL (     161 calls)
 
     PWSCF        :  12m41.61s CPU   5m58.03s WALL

 
   This run was terminated on:  18: 6:48  23Oct2023            

=------------------------------------------------------------------------------=
   JOB DONE.
=------------------------------------------------------------------------------=
