
     Program PWSCF v.7.2 starts on 23Oct2023 at 17:58:42 

     This program is part of the open-source Quantum ESPRESSO suite
     for quantum simulation of materials; please cite
         "P. Giannozzi et al., J. Phys.:Condens. Matter 21 395502 (2009);
         "P. Giannozzi et al., J. Phys.:Condens. Matter 29 465901 (2017);
         "P. Giannozzi et al., J. Chem. Phys. 152 154105 (2020);
          URL http://www.quantum-espresso.org", 
     in publications or presentations arising from this work. More details at
     http://www.quantum-espresso.org/quote

     Parallel version (MPI & OpenMP), running on      12 processor cores
     Number of MPI processes:                 1
     Threads/MPI process:                    12

     MPI processes distributed on     1 nodes
     60516 MiB available memory on the printing compute node when the environment starts
 
     Reading input from aiida.in

     Current dimensions of program PWSCF are:
     Max number of different atomic species (ntypx) = 10
     Max number of k-points (npk) =  40000
     Max angular momentum in pseudopotentials (lmaxx) =  4
     Message from routine setup:
     using ibrav=0 with symmetry is DISCOURAGED, use correct ibrav instead
 
     Subspace diagonalization in iterative solution of the eigenvalue problem:
     a serial algorithm will be used

 
     G-vector sticks info
     --------------------
     sticks:   dense  smooth     PW     G-vecs:    dense   smooth      PW
     Sum        1531     769    241                39693    14163    2421
 
     Using Slab Decomposition
 


     bravais-lattice index     =            0
     lattice parameter (alat)  =       8.3515  a.u.
     unit-cell volume          =     411.8857 (a.u.)^3
     number of atoms/cell      =            4
     number of atomic types    =            4
     number of electrons       =        42.00
     number of Kohn-Sham states=           25
     kinetic-energy cutoff     =      40.0000  Ry
     charge density cutoff     =     320.0000  Ry
     scf convergence threshold =      8.0E-10
     mixing beta               =       0.4000
     number of iterations used =            8  plain     mixing
     Exchange-correlation= SLA  PW   PSX  PSC
                           (   1   4  10   8   0   0   0)

     GPU acceleration is ACTIVE.


     GPU used by master process:

        Device Number: 0
        Device name: Tesla P100-PCIE-16GB
        Compute capability : 60
        Ratio of single to double precision performance  : 2
        Memory Clock Rate (KHz): 715000
        Memory Bus Width (bits): 4096
        Peak Memory Bandwidth (GB/s): 732.16

     celldm(1)=   8.351488  celldm(2)=   0.000000  celldm(3)=   0.000000
     celldm(4)=   0.000000  celldm(5)=   0.000000  celldm(6)=   0.000000

     crystal axes: (cart. coord. in units of alat)
               a(1) = (   0.000000   0.707107   0.707107 )  
               a(2) = (   0.707107   0.000000   0.707107 )  
               a(3) = (   0.707107   0.707107   0.000000 )  

     reciprocal axes: (cart. coord. in units 2 pi/alat)
               b(1) = ( -0.707107  0.707107  0.707107 )  
               b(2) = (  0.707107 -0.707107  0.707107 )  
               b(3) = (  0.707107  0.707107 -0.707107 )  


     PseudoPot. # 1 for Cr read from file:
     ./pseudo/cr_pbesol_v1.5.uspp.F.UPF
     MD5 check sum: a621641e0be27168676a837af8893d0f
     Pseudo is Ultrasoft + core correction, Zval = 14.0
     Generated by new atomic code, or converted to UPF format
     Using radial grid of  857 points,  6 beta functions with: 
                l(1) =   0
                l(2) =   0
                l(3) =   1
                l(4) =   1
                l(5) =   2
                l(6) =   2
     Q(r) pseudized with  8 coefficients,  rinner =    0.950   0.950   0.950
                                                       0.950   0.950

     PseudoPot. # 2 for Si read from file:
     ./pseudo/Si.pbesol-n-rrkjus_psl.1.0.0.UPF
     MD5 check sum: c4212819de858c94c3a1644338846ac9
     Pseudo is Ultrasoft + core correction, Zval =  4.0
     Generated using "atomic" code by A. Dal Corso  v.6.0 svn rev. 13079
     Using radial grid of 1141 points,  6 beta functions with: 
                l(1) =   0
                l(2) =   0
                l(3) =   1
                l(4) =   1
                l(5) =   2
                l(6) =   2
     Q(r) pseudized with 0 coefficients 


     PseudoPot. # 3 for V  read from file:
     ./pseudo/v_pbesol_v1.4.uspp.F.UPF
     MD5 check sum: 72fa7d0034c41d8adc50bbc8c632b9f9
     Pseudo is Ultrasoft + core correction, Zval = 13.0
     Generated by new atomic code, or converted to UPF format
     Using radial grid of  853 points,  6 beta functions with: 
                l(1) =   0
                l(2) =   0
                l(3) =   1
                l(4) =   1
                l(5) =   2
                l(6) =   2
     Q(r) pseudized with  8 coefficients,  rinner =    1.100   1.100   1.100
                                                       1.100   1.100

     PseudoPot. # 4 for Y  read from file:
     ./pseudo/y_pbesol_v1.4.uspp.F.UPF
     MD5 check sum: dac24993bfd4491f22c7b9129ad9e93d
     Pseudo is Ultrasoft + core correction, Zval = 11.0
     Generated by new atomic code, or converted to UPF format
     Using radial grid of  885 points,  6 beta functions with: 
                l(1) =   0
                l(2) =   0
                l(3) =   1
                l(4) =   1
                l(5) =   2
                l(6) =   2
     Q(r) pseudized with  8 coefficients,  rinner =    1.200   1.200   1.200
                                                       1.200   1.200

     atomic species   valence    mass     pseudopotential
        Cr            14.00    51.99610     Cr( 1.00)
        Si             4.00    28.08550     Si( 1.00)
        V             13.00    50.94150     V ( 1.00)
        Y             11.00    88.90585     Y ( 1.00)

     Starting magnetic structure 
     atomic species   magnetization
        Cr           0.357
        Si           0.100
        V            0.385
        Y            0.455

     24 Sym. Ops. (no inversion) found


                                    s                        frac. trans.

      isym =  1     identity                                     

 cryst.   s( 1) = (     1          0          0      )
                  (     0          1          0      )
                  (     0          0          1      )

 cart.    s( 1) = (  1.0000000 -0.0000000  0.0000000 )
                  ( -0.0000000  1.0000000  0.0000000 )
                  ( -0.0000000  0.0000000  1.0000000 )


      isym =  2     180 deg rotation - cart. axis [0,0,1]        

 cryst.   s( 2) = (     0          1         -1      )
                  (     1          0         -1      )
                  (     0          0         -1      )

 cart.    s( 2) = ( -1.0000000  0.0000000  0.0000000 )
                  (  0.0000000 -1.0000000  0.0000000 )
                  (  0.0000000 -0.0000000  1.0000000 )


      isym =  3     180 deg rotation - cart. axis [0,1,0]        

 cryst.   s( 3) = (     0         -1          1      )
                  (     0         -1          0      )
                  (     1         -1          0      )

 cart.    s( 3) = ( -1.0000000 -0.0000000 -0.0000000 )
                  (  0.0000000  1.0000000 -0.0000000 )
                  (  0.0000000  0.0000000 -1.0000000 )


      isym =  4     180 deg rotation - cart. axis [1,0,0]        

 cryst.   s( 4) = (    -1          0          0      )
                  (    -1          0          1      )
                  (    -1          1          0      )

 cart.    s( 4) = (  1.0000000  0.0000000 -0.0000000 )
                  ( -0.0000000 -1.0000000 -0.0000000 )
                  ( -0.0000000 -0.0000000 -1.0000000 )


      isym =  5     120 deg rotation - cart. axis [-1,-1,-1]     

 cryst.   s( 5) = (     0          0          1      )
                  (     1          0          0      )
                  (     0          1          0      )

 cart.    s( 5) = (  0.0000000  1.0000000 -0.0000000 )
                  (  0.0000000 -0.0000000  1.0000000 )
                  (  1.0000000 -0.0000000  0.0000000 )


      isym =  6     120 deg rotation - cart. axis [-1,1,1]       

 cryst.   s( 6) = (     1         -1          0      )
                  (     0         -1          1      )
                  (     0         -1          0      )

 cart.    s( 6) = ( -0.0000000 -1.0000000 -0.0000000 )
                  ( -0.0000000  0.0000000  1.0000000 )
                  ( -1.0000000  0.0000000  0.0000000 )


      isym =  7     120 deg rotation - cart. axis [1,1,-1]       

 cryst.   s( 7) = (    -1          1          0      )
                  (    -1          0          0      )
                  (    -1          0          1      )

 cart.    s( 7) = ( -0.0000000  1.0000000  0.0000000 )
                  ( -0.0000000 -0.0000000 -1.0000000 )
                  ( -1.0000000 -0.0000000 -0.0000000 )


      isym =  8     120 deg rotation - cart. axis [1,-1,1]       

 cryst.   s( 8) = (     0          0         -1      )
                  (     0          1         -1      )
                  (     1          0         -1      )

 cart.    s( 8) = (  0.0000000 -1.0000000  0.0000000 )
                  (  0.0000000  0.0000000 -1.0000000 )
                  (  1.0000000  0.0000000 -0.0000000 )


      isym =  9     120 deg rotation - cart. axis [1,1,1]        

 cryst.   s( 9) = (     0          1          0      )
                  (     0          0          1      )
                  (     1          0          0      )

 cart.    s( 9) = ( -0.0000000  0.0000000  1.0000000 )
                  (  1.0000000  0.0000000 -0.0000000 )
                  (  0.0000000  1.0000000 -0.0000000 )


      isym = 10     120 deg rotation - cart. axis [-1,1,-1]      

 cryst.   s(10) = (    -1          0          1      )
                  (    -1          1          0      )
                  (    -1          0          0      )

 cart.    s(10) = (  0.0000000 -0.0000000  1.0000000 )
                  ( -1.0000000 -0.0000000 -0.0000000 )
                  ( -0.0000000 -1.0000000 -0.0000000 )


      isym = 11     120 deg rotation - cart. axis [1,-1,-1]      

 cryst.   s(11) = (     1          0         -1      )
                  (     0          0         -1      )
                  (     0          1         -1      )

 cart.    s(11) = (  0.0000000  0.0000000 -1.0000000 )
                  ( -1.0000000  0.0000000  0.0000000 )
                  ( -0.0000000  1.0000000  0.0000000 )


      isym = 12     120 deg rotation - cart. axis [-1,-1,1]      

 cryst.   s(12) = (     0         -1          0      )
                  (     1         -1          0      )
                  (     0         -1          1      )

 cart.    s(12) = ( -0.0000000 -0.0000000 -1.0000000 )
                  (  1.0000000 -0.0000000  0.0000000 )
                  (  0.0000000 -1.0000000  0.0000000 )


      isym = 13     inv. 180 deg rotation - cart. axis [1,1,0]   

 cryst.   s(13) = (     1          0         -1      )
                  (     0          1         -1      )
                  (     0          0         -1      )

 cart.    s(13) = (  0.0000000 -1.0000000  0.0000000 )
                  ( -1.0000000  0.0000000  0.0000000 )
                  ( -0.0000000  0.0000000  1.0000000 )


      isym = 14     inv. 180 deg rotation - cart. axis [1,-1,0]  

 cryst.   s(14) = (     0          1          0      )
                  (     1          0          0      )
                  (     0          0          1      )

 cart.    s(14) = ( -0.0000000  1.0000000  0.0000000 )
                  (  1.0000000 -0.0000000  0.0000000 )
                  (  0.0000000 -0.0000000  1.0000000 )


      isym = 15     inv.  90 deg rotation - cart. axis [0,0,-1]  

 cryst.   s(15) = (     0         -1          0      )
                  (     0         -1          1      )
                  (     1         -1          0      )

 cart.    s(15) = ( -0.0000000 -1.0000000 -0.0000000 )
                  (  1.0000000  0.0000000 -0.0000000 )
                  (  0.0000000  0.0000000 -1.0000000 )


      isym = 16     inv.  90 deg rotation - cart. axis [0,0,1]   

 cryst.   s(16) = (    -1          0          1      )
                  (    -1          0          0      )
                  (    -1          1          0      )

 cart.    s(16) = (  0.0000000  1.0000000 -0.0000000 )
                  ( -1.0000000 -0.0000000 -0.0000000 )
                  ( -0.0000000 -0.0000000 -1.0000000 )


      isym = 17     inv. 180 deg rotation - cart. axis [1,0,1]   

 cryst.   s(17) = (     1         -1          0      )
                  (     0         -1          0      )
                  (     0         -1          1      )

 cart.    s(17) = ( -0.0000000 -0.0000000 -1.0000000 )
                  ( -0.0000000  1.0000000  0.0000000 )
                  ( -1.0000000  0.0000000  0.0000000 )


      isym = 18     inv. 180 deg rotation - cart. axis [-1,0,1]  

 cryst.   s(18) = (     0          0          1      )
                  (     0          1          0      )
                  (     1          0          0      )

 cart.    s(18) = (  0.0000000 -0.0000000  1.0000000 )
                  (  0.0000000  1.0000000 -0.0000000 )
                  (  1.0000000  0.0000000 -0.0000000 )


      isym = 19     inv.  90 deg rotation - cart. axis [0,1,0]   

 cryst.   s(19) = (     0          0         -1      )
                  (     1          0         -1      )
                  (     0          1         -1      )

 cart.    s(19) = (  0.0000000  0.0000000 -1.0000000 )
                  (  0.0000000 -1.0000000  0.0000000 )
                  (  1.0000000 -0.0000000  0.0000000 )


      isym = 20     inv.  90 deg rotation - cart. axis [0,-1,0]  

 cryst.   s(20) = (    -1          1          0      )
                  (    -1          0          1      )
                  (    -1          0          0      )

 cart.    s(20) = ( -0.0000000  0.0000000  1.0000000 )
                  ( -0.0000000 -1.0000000 -0.0000000 )
                  ( -1.0000000 -0.0000000 -0.0000000 )


      isym = 21     inv. 180 deg rotation - cart. axis [0,1,1]   

 cryst.   s(21) = (    -1          0          0      )
                  (    -1          1          0      )
                  (    -1          0          1      )

 cart.    s(21) = (  1.0000000 -0.0000000  0.0000000 )
                  ( -0.0000000 -0.0000000 -1.0000000 )
                  ( -0.0000000 -1.0000000 -0.0000000 )


      isym = 22     inv. 180 deg rotation - cart. axis [0,1,-1]  

 cryst.   s(22) = (     1          0          0      )
                  (     0          0          1      )
                  (     0          1          0      )

 cart.    s(22) = (  1.0000000  0.0000000 -0.0000000 )
                  ( -0.0000000  0.0000000  1.0000000 )
                  ( -0.0000000  1.0000000  0.0000000 )


      isym = 23     inv.  90 deg rotation - cart. axis [-1,0,0]  

 cryst.   s(23) = (     0          1         -1      )
                  (     0          0         -1      )
                  (     1          0         -1      )

 cart.    s(23) = ( -1.0000000  0.0000000  0.0000000 )
                  (  0.0000000  0.0000000 -1.0000000 )
                  (  0.0000000  1.0000000 -0.0000000 )


      isym = 24     inv.  90 deg rotation - cart. axis [1,0,0]   

 cryst.   s(24) = (     0         -1          1      )
                  (     1         -1          0      )
                  (     0         -1          0      )

 cart.    s(24) = ( -1.0000000 -0.0000000 -0.0000000 )
                  (  0.0000000 -0.0000000  1.0000000 )
                  (  0.0000000 -1.0000000  0.0000000 )


   Cartesian axes

     site n.     atom                  positions (alat units)
         1           Y   tau(   1) = (   0.3535534   0.3535534   0.3535534  )
         2           V   tau(   2) = (   0.7071068   0.0000000   0.0000000  )
         3           Cr  tau(   3) = (   0.0000000   0.0000000   0.0000000  )
         4           Si  tau(   4) = (   0.3535534   0.3535534   1.0606602  )

   Crystallographic axes

     site n.     atom                  positions (cryst. coord.)
         1           Y   tau(   1) = (  0.2500000  0.2500000  0.2500000  )
         2           V   tau(   2) = ( -0.5000000  0.5000000  0.5000000  )
         3           Cr  tau(   3) = (  0.0000000  0.0000000  0.0000000  )
         4           Si  tau(   4) = (  0.7500000  0.7500000 -0.2500000  )

     number of k points=    72  Marzari-Vanderbilt smearing, width (Ry)=  0.0100
                       cart. coord. in units 2pi/alat
        k(    1) = (   0.0000000   0.0000000   0.0000000), wk =   0.0005787
        k(    2) = (   0.0589256   0.0589256  -0.0589256), wk =   0.0046296
        k(    3) = (   0.1178511   0.1178511  -0.1178511), wk =   0.0046296
        k(    4) = (   0.1767767   0.1767767  -0.1767767), wk =   0.0046296
        k(    5) = (   0.2357023   0.2357023  -0.2357023), wk =   0.0046296
        k(    6) = (   0.2946278   0.2946278  -0.2946278), wk =   0.0046296
        k(    7) = (  -0.3535534  -0.3535534   0.3535534), wk =   0.0023148
        k(    8) = (   0.1178511   0.0000000  -0.0000000), wk =   0.0034722
        k(    9) = (   0.1767767   0.0589256  -0.0589256), wk =   0.0138889
        k(   10) = (   0.2357023   0.1178511  -0.1178511), wk =   0.0138889
        k(   11) = (   0.2946278   0.1767767  -0.1767767), wk =   0.0138889
        k(   12) = (   0.3535534   0.2357023  -0.2357023), wk =   0.0138889
        k(   13) = (  -0.2946278  -0.4124790   0.4124790), wk =   0.0138889
        k(   14) = (  -0.2357023  -0.3535534   0.3535534), wk =   0.0138889
        k(   15) = (  -0.1767767  -0.2946278   0.2946278), wk =   0.0138889
        k(   16) = (  -0.1178511  -0.2357023   0.2357023), wk =   0.0138889
        k(   17) = (  -0.0589256  -0.1767767   0.1767767), wk =   0.0138889
        k(   18) = (  -0.0000000  -0.1178511   0.1178511), wk =   0.0069444
        k(   19) = (   0.2357023   0.0000000  -0.0000000), wk =   0.0034722
        k(   20) = (   0.2946278   0.0589256  -0.0589256), wk =   0.0138889
        k(   21) = (   0.3535534   0.1178511  -0.1178511), wk =   0.0138889
        k(   22) = (   0.4124790   0.1767767  -0.1767767), wk =   0.0138889
        k(   23) = (  -0.2357023  -0.4714045   0.4714045), wk =   0.0138889
        k(   24) = (  -0.1767767  -0.4124790   0.4124790), wk =   0.0138889
        k(   25) = (  -0.1178511  -0.3535534   0.3535534), wk =   0.0138889
        k(   26) = (  -0.0589256  -0.2946278   0.2946278), wk =   0.0138889
        k(   27) = (   0.0000000  -0.2357023   0.2357023), wk =   0.0069444
        k(   28) = (   0.3535534   0.0000000   0.0000000), wk =   0.0034722
        k(   29) = (   0.4124790   0.0589256  -0.0589256), wk =   0.0138889
        k(   30) = (   0.4714045   0.1178511  -0.1178511), wk =   0.0138889
        k(   31) = (  -0.1767767  -0.5303301   0.5303301), wk =   0.0138889
        k(   32) = (  -0.1178511  -0.4714045   0.4714045), wk =   0.0138889
        k(   33) = (  -0.0589256  -0.4124790   0.4124790), wk =   0.0138889
        k(   34) = (   0.0000000  -0.3535534   0.3535534), wk =   0.0069444
        k(   35) = (   0.4714045   0.0000000  -0.0000000), wk =   0.0034722
        k(   36) = (   0.5303301   0.0589256  -0.0589256), wk =   0.0138889
        k(   37) = (  -0.1178511  -0.5892557   0.5892557), wk =   0.0138889
        k(   38) = (  -0.0589256  -0.5303301   0.5303301), wk =   0.0138889
        k(   39) = (  -0.0000000  -0.4714045   0.4714045), wk =   0.0069444
        k(   40) = (   0.5892557   0.0000000  -0.0000000), wk =   0.0034722
        k(   41) = (  -0.0589256  -0.6481812   0.6481812), wk =   0.0138889
        k(   42) = (   0.0000000  -0.5892557   0.5892557), wk =   0.0069444
        k(   43) = (  -0.7071068   0.0000000   0.0000000), wk =   0.0017361
        k(   44) = (   0.2357023   0.1178511   0.0000000), wk =   0.0138889
        k(   45) = (   0.2946278   0.1767767  -0.0589256), wk =   0.0277778
        k(   46) = (   0.3535534   0.2357023  -0.1178511), wk =   0.0277778
        k(   47) = (  -0.2946278  -0.4124790   0.5303301), wk =   0.0277778
        k(   48) = (  -0.2357023  -0.3535534   0.4714045), wk =   0.0138889
        k(   49) = (   0.3535534   0.1178511  -0.0000000), wk =   0.0138889
        k(   50) = (   0.4124790   0.1767767  -0.0589256), wk =   0.0277778
        k(   51) = (  -0.2357023  -0.4714045   0.5892557), wk =   0.0277778
        k(   52) = (  -0.1767767  -0.4124790   0.5303301), wk =   0.0277778
        k(   53) = (  -0.1178511  -0.3535534   0.4714045), wk =   0.0277778
        k(   54) = (  -0.0589256  -0.2946278   0.4124790), wk =   0.0277778
        k(   55) = (   0.0000000  -0.2357023   0.3535534), wk =   0.0138889
        k(   56) = (   0.4714045   0.1178511  -0.0000000), wk =   0.0138889
        k(   57) = (  -0.1767767  -0.5303301   0.6481812), wk =   0.0277778
        k(   58) = (  -0.1178511  -0.4714045   0.5892557), wk =   0.0277778
        k(   59) = (  -0.0589256  -0.4124790   0.5303301), wk =   0.0277778
        k(   60) = (   0.0000000  -0.3535534   0.4714045), wk =   0.0138889
        k(   61) = (  -0.1178511  -0.5892557   0.7071068), wk =   0.0138889
        k(   62) = (  -0.0589256  -0.5303301   0.6481812), wk =   0.0277778
        k(   63) = (  -0.0000000  -0.4714045   0.5892557), wk =   0.0138889
        k(   64) = (  -0.7071068   0.1178511  -0.0000000), wk =   0.0069444
        k(   65) = (  -0.2357023  -0.4714045   0.7071068), wk =   0.0138889
        k(   66) = (  -0.1767767  -0.4124790   0.6481812), wk =   0.0277778
        k(   67) = (  -0.1178511  -0.3535534   0.5892557), wk =   0.0138889
        k(   68) = (  -0.1178511  -0.4714045   0.7071068), wk =   0.0138889
        k(   69) = (  -0.0589256  -0.4124790   0.6481812), wk =   0.0277778
        k(   70) = (   0.0000000  -0.3535534   0.5892557), wk =   0.0138889
        k(   71) = (  -0.7071068   0.2357023   0.0000000), wk =   0.0069444
        k(   72) = (  -0.7071068   0.3535534   0.0000000), wk =   0.0034722

                       cryst. coord.
        k(    1) = (   0.0000000   0.0000000   0.0000000), wk =   0.0005787
        k(    2) = (   0.0000000   0.0000000   0.0833333), wk =   0.0046296
        k(    3) = (   0.0000000   0.0000000   0.1666667), wk =   0.0046296
        k(    4) = (   0.0000000   0.0000000   0.2500000), wk =   0.0046296
        k(    5) = (   0.0000000   0.0000000   0.3333333), wk =   0.0046296
        k(    6) = (  -0.0000000  -0.0000000   0.4166667), wk =   0.0046296
        k(    7) = (  -0.0000000  -0.0000000  -0.5000000), wk =   0.0023148
        k(    8) = (  -0.0000000   0.0833333   0.0833333), wk =   0.0034722
        k(    9) = (   0.0000000   0.0833333   0.1666667), wk =   0.0138889
        k(   10) = (  -0.0000000   0.0833333   0.2500000), wk =   0.0138889
        k(   11) = (   0.0000000   0.0833333   0.3333333), wk =   0.0138889
        k(   12) = (  -0.0000000   0.0833333   0.4166667), wk =   0.0138889
        k(   13) = (  -0.0000000   0.0833333  -0.5000000), wk =   0.0138889
        k(   14) = (   0.0000000   0.0833333  -0.4166667), wk =   0.0138889
        k(   15) = (  -0.0000000   0.0833333  -0.3333333), wk =   0.0138889
        k(   16) = (  -0.0000000   0.0833333  -0.2500000), wk =   0.0138889
        k(   17) = (   0.0000000   0.0833333  -0.1666667), wk =   0.0138889
        k(   18) = (   0.0000000   0.0833333  -0.0833333), wk =   0.0069444
        k(   19) = (  -0.0000000   0.1666667   0.1666667), wk =   0.0034722
        k(   20) = (  -0.0000000   0.1666667   0.2500000), wk =   0.0138889
        k(   21) = (   0.0000000   0.1666667   0.3333333), wk =   0.0138889
        k(   22) = (   0.0000000   0.1666667   0.4166667), wk =   0.0138889
        k(   23) = (  -0.0000000   0.1666667  -0.5000000), wk =   0.0138889
        k(   24) = (  -0.0000000   0.1666667  -0.4166667), wk =   0.0138889
        k(   25) = (  -0.0000000   0.1666667  -0.3333333), wk =   0.0138889
        k(   26) = (   0.0000000   0.1666667  -0.2500000), wk =   0.0138889
        k(   27) = (   0.0000000   0.1666667  -0.1666667), wk =   0.0069444
        k(   28) = (   0.0000000   0.2500000   0.2500000), wk =   0.0034722
        k(   29) = (  -0.0000000   0.2500000   0.3333333), wk =   0.0138889
        k(   30) = (  -0.0000000   0.2500000   0.4166667), wk =   0.0138889
        k(   31) = (   0.0000000   0.2500000  -0.5000000), wk =   0.0138889
        k(   32) = (  -0.0000000   0.2500000  -0.4166667), wk =   0.0138889
        k(   33) = (  -0.0000000   0.2500000  -0.3333333), wk =   0.0138889
        k(   34) = (  -0.0000000   0.2500000  -0.2500000), wk =   0.0069444
        k(   35) = (  -0.0000000   0.3333333   0.3333333), wk =   0.0034722
        k(   36) = (  -0.0000000   0.3333333   0.4166667), wk =   0.0138889
        k(   37) = (   0.0000000   0.3333333  -0.5000000), wk =   0.0138889
        k(   38) = (  -0.0000000   0.3333333  -0.4166667), wk =   0.0138889
        k(   39) = (   0.0000000   0.3333333  -0.3333333), wk =   0.0069444
        k(   40) = (   0.0000000   0.4166667   0.4166667), wk =   0.0034722
        k(   41) = (   0.0000000   0.4166667  -0.5000000), wk =   0.0138889
        k(   42) = (   0.0000000   0.4166667  -0.4166667), wk =   0.0069444
        k(   43) = (   0.0000000  -0.5000000  -0.5000000), wk =   0.0017361
        k(   44) = (   0.0833333   0.1666667   0.2500000), wk =   0.0138889
        k(   45) = (   0.0833333   0.1666667   0.3333333), wk =   0.0277778
        k(   46) = (   0.0833333   0.1666667   0.4166667), wk =   0.0277778
        k(   47) = (   0.0833333   0.1666667  -0.5000000), wk =   0.0277778
        k(   48) = (   0.0833333   0.1666667  -0.4166667), wk =   0.0138889
        k(   49) = (   0.0833333   0.2500000   0.3333333), wk =   0.0138889
        k(   50) = (   0.0833333   0.2500000   0.4166667), wk =   0.0277778
        k(   51) = (   0.0833333   0.2500000  -0.5000000), wk =   0.0277778
        k(   52) = (   0.0833333   0.2500000  -0.4166667), wk =   0.0277778
        k(   53) = (   0.0833333   0.2500000  -0.3333333), wk =   0.0277778
        k(   54) = (   0.0833333   0.2500000  -0.2500000), wk =   0.0277778
        k(   55) = (   0.0833333   0.2500000  -0.1666667), wk =   0.0138889
        k(   56) = (   0.0833333   0.3333333   0.4166667), wk =   0.0138889
        k(   57) = (   0.0833333   0.3333333  -0.5000000), wk =   0.0277778
        k(   58) = (   0.0833333   0.3333333  -0.4166667), wk =   0.0277778
        k(   59) = (   0.0833333   0.3333333  -0.3333333), wk =   0.0277778
        k(   60) = (   0.0833333   0.3333333  -0.2500000), wk =   0.0138889
        k(   61) = (   0.0833333   0.4166667  -0.5000000), wk =   0.0138889
        k(   62) = (   0.0833333   0.4166667  -0.4166667), wk =   0.0277778
        k(   63) = (   0.0833333   0.4166667  -0.3333333), wk =   0.0138889
        k(   64) = (   0.0833333  -0.5000000  -0.4166667), wk =   0.0069444
        k(   65) = (   0.1666667   0.3333333  -0.5000000), wk =   0.0138889
        k(   66) = (   0.1666667   0.3333333  -0.4166667), wk =   0.0277778
        k(   67) = (   0.1666667   0.3333333  -0.3333333), wk =   0.0138889
        k(   68) = (   0.1666667   0.4166667  -0.4166667), wk =   0.0138889
        k(   69) = (   0.1666667   0.4166667  -0.3333333), wk =   0.0277778
        k(   70) = (   0.1666667   0.4166667  -0.2500000), wk =   0.0138889
        k(   71) = (   0.1666667  -0.5000000  -0.3333333), wk =   0.0069444
        k(   72) = (   0.2500000  -0.5000000  -0.2500000), wk =   0.0034722

     Dense  grid:    39693 G-vectors     FFT dimensions: (  48,  48,  48)

     Smooth grid:    14163 G-vectors     FFT dimensions: (  36,  36,  36)

     Dynamical RAM for                 wfc:       0.67 MB

     Dynamical RAM for     wfc (w. buffer):      97.35 MB

     Dynamical RAM for           str. fact:       2.42 MB

     Dynamical RAM for           local pot:       0.00 MB

     Dynamical RAM for          nlocal pot:       1.93 MB

     Dynamical RAM for                qrad:       5.74 MB

     Dynamical RAM for          rho,v,vnew:       8.70 MB

     Dynamical RAM for               rhoin:       2.90 MB

     Dynamical RAM for            rho*nmix:      19.38 MB

     Dynamical RAM for           G-vectors:       2.38 MB

     Dynamical RAM for          h,s,v(r/c):       0.11 MB

     Dynamical RAM for          <psi|beta>:       0.03 MB

     Dynamical RAM for                 psi:       1.34 MB

     Dynamical RAM for                hpsi:       1.34 MB

     Dynamical RAM for                spsi:       1.34 MB

     Dynamical RAM for      wfcinit/wfcrot:       2.02 MB

     Dynamical RAM for           addusdens:     113.87 MB

     Dynamical RAM for          addusforce:     113.87 MB

     Dynamical RAM for         addusstress:     122.65 MB

     Estimated static dynamical RAM per process >     129.52 MB

     Estimated max dynamical RAM per process >     271.54 MB

     Check: negative core charge=   -0.000004
     Generating pointlists ...
     new r_m :   0.2526 (alat units)  2.1096 (a.u.) for type    1
     new r_m :   0.2526 (alat units)  2.1096 (a.u.) for type    2
     new r_m :   0.2526 (alat units)  2.1096 (a.u.) for type    3
     new r_m :   0.2526 (alat units)  2.1096 (a.u.) for type    4

     Initial potential from superposition of free atoms

     starting charge      40.9942, renormalised to      42.0000

     negative rho (up, down):  1.229E-03 5.676E-04
     Starting wfcs are   37 randomized atomic wfcs

     total cpu time spent up to now is        4.8 secs

     per-process dynamical memory:   808.0 Mb

     Self-consistent Calculation
[tb_dev] Currently allocated     1.10E+00 Mbytes, locked:    0 /   9
[tb_pin] Currently allocated     0.00E+00 Mbytes, locked:    0 /   0

     iteration #  1     ecut=    40.00 Ry     beta= 0.40
     Davidson diagonalization with overlap

---- Real-time Memory Report at c_bands before calling an iterative solver
           941 MiB given to the printing process from OS
           789 MiB allocation reported by mallinfo(arena+hblkhd)
         59075 MiB available memory on the node where the printing process lives
     GPU memory used/free/total (MiB): 766 / 15514 / 16280
------------------
     ethr =  1.00E-02,  avg # of iterations =  2.7

     negative rho (up, down):  6.347E-04 1.141E-03

     total cpu time spent up to now is        7.2 secs

     total energy              =    -423.60586171 Ry
     estimated scf accuracy    <       1.51887234 Ry

     total magnetization       =     6.07 Bohr mag/cell
     absolute magnetization    =     6.24 Bohr mag/cell
[tb_dev] Currently allocated     4.69E-01 Mbytes, locked:    0 /   6
[tb_pin] Currently allocated     0.00E+00 Mbytes, locked:    0 /   0

     iteration #  2     ecut=    40.00 Ry     beta= 0.40
     Davidson diagonalization with overlap

---- Real-time Memory Report at c_bands before calling an iterative solver
           992 MiB given to the printing process from OS
           807 MiB allocation reported by mallinfo(arena+hblkhd)
         59066 MiB available memory on the node where the printing process lives
     GPU memory used/free/total (MiB): 934 / 15346 / 16280
------------------
     ethr =  3.62E-03,  avg # of iterations =  6.7

     negative rho (up, down):  6.143E-04 1.147E-03

     total cpu time spent up to now is       11.6 secs

     total energy              =    -422.85977662 Ry
     estimated scf accuracy    <      15.43569187 Ry

     total magnetization       =     1.72 Bohr mag/cell
     absolute magnetization    =     2.06 Bohr mag/cell
[tb_dev] Currently allocated     4.69E-01 Mbytes, locked:    0 /   6
[tb_pin] Currently allocated     0.00E+00 Mbytes, locked:    0 /   0

     iteration #  3     ecut=    40.00 Ry     beta= 0.40
     Davidson diagonalization with overlap

---- Real-time Memory Report at c_bands before calling an iterative solver
           994 MiB given to the printing process from OS
           807 MiB allocation reported by mallinfo(arena+hblkhd)
         59069 MiB available memory on the node where the printing process lives
     GPU memory used/free/total (MiB): 966 / 15314 / 16280
------------------
     ethr =  3.62E-03,  avg # of iterations =  5.5

     negative rho (up, down):  6.697E-05 1.716E-03

     total cpu time spent up to now is       15.4 secs

     total energy              =    -424.24038716 Ry
     estimated scf accuracy    <       0.23040197 Ry

     total magnetization       =     5.89 Bohr mag/cell
     absolute magnetization    =     6.10 Bohr mag/cell
[tb_dev] Currently allocated     4.69E-01 Mbytes, locked:    0 /   6
[tb_pin] Currently allocated     0.00E+00 Mbytes, locked:    0 /   0

     iteration #  4     ecut=    40.00 Ry     beta= 0.40
     Davidson diagonalization with overlap

---- Real-time Memory Report at c_bands before calling an iterative solver
           996 MiB given to the printing process from OS
           807 MiB allocation reported by mallinfo(arena+hblkhd)
         59069 MiB available memory on the node where the printing process lives
     GPU memory used/free/total (MiB): 966 / 15314 / 16280
------------------
     ethr =  5.49E-04,  avg # of iterations =  3.3

     negative rho (up, down):  1.532E-06 2.297E-03

     total cpu time spent up to now is       18.0 secs

     total energy              =    -424.27933292 Ry
     estimated scf accuracy    <       0.08701333 Ry

     total magnetization       =     4.99 Bohr mag/cell
     absolute magnetization    =     5.23 Bohr mag/cell
[tb_dev] Currently allocated     4.69E-01 Mbytes, locked:    0 /   6
[tb_pin] Currently allocated     0.00E+00 Mbytes, locked:    0 /   0

     iteration #  5     ecut=    40.00 Ry     beta= 0.40
     Davidson diagonalization with overlap

---- Real-time Memory Report at c_bands before calling an iterative solver
           999 MiB given to the printing process from OS
           807 MiB allocation reported by mallinfo(arena+hblkhd)
         59067 MiB available memory on the node where the printing process lives
     GPU memory used/free/total (MiB): 966 / 15314 / 16280
------------------
     ethr =  2.07E-04,  avg # of iterations =  4.2

     negative rho (up, down):  2.170E-05 1.982E-03

     total cpu time spent up to now is       21.1 secs

     total energy              =    -424.29305294 Ry
     estimated scf accuracy    <       0.00442108 Ry

     total magnetization       =     4.68 Bohr mag/cell
     absolute magnetization    =     4.92 Bohr mag/cell
[tb_dev] Currently allocated     4.69E-01 Mbytes, locked:    0 /   6
[tb_pin] Currently allocated     0.00E+00 Mbytes, locked:    0 /   0

     iteration #  6     ecut=    40.00 Ry     beta= 0.40
     Davidson diagonalization with overlap

---- Real-time Memory Report at c_bands before calling an iterative solver
          1001 MiB given to the printing process from OS
           807 MiB allocation reported by mallinfo(arena+hblkhd)
         59066 MiB available memory on the node where the printing process lives
     GPU memory used/free/total (MiB): 966 / 15314 / 16280
------------------
     c_bands:  1 eigenvalues not converged
     c_bands:  1 eigenvalues not converged
     c_bands:  1 eigenvalues not converged
     c_bands:  1 eigenvalues not converged
     c_bands:  1 eigenvalues not converged
     c_bands:  1 eigenvalues not converged
     c_bands:  1 eigenvalues not converged
     c_bands:  1 eigenvalues not converged
     c_bands:  1 eigenvalues not converged
     ethr =  1.05E-05,  avg # of iterations =  9.9

     negative rho (up, down):  4.185E-05 1.879E-03

     total cpu time spent up to now is       26.9 secs

     total energy              =    -424.29636172 Ry
     estimated scf accuracy    <       0.00647226 Ry

     total magnetization       =     4.45 Bohr mag/cell
     absolute magnetization    =     4.66 Bohr mag/cell
[tb_dev] Currently allocated     4.69E-01 Mbytes, locked:    0 /   6
[tb_pin] Currently allocated     0.00E+00 Mbytes, locked:    0 /   0

     iteration #  7     ecut=    40.00 Ry     beta= 0.40
     Davidson diagonalization with overlap

---- Real-time Memory Report at c_bands before calling an iterative solver
          1003 MiB given to the printing process from OS
           807 MiB allocation reported by mallinfo(arena+hblkhd)
         59064 MiB available memory on the node where the printing process lives
     GPU memory used/free/total (MiB): 966 / 15314 / 16280
------------------
     ethr =  1.05E-05,  avg # of iterations =  3.6

     negative rho (up, down):  4.314E-05 1.877E-03

     total cpu time spent up to now is       29.7 secs

     total energy              =    -424.29767741 Ry
     estimated scf accuracy    <       0.00390442 Ry

     total magnetization       =     4.19 Bohr mag/cell
     absolute magnetization    =     4.41 Bohr mag/cell
[tb_dev] Currently allocated     4.69E-01 Mbytes, locked:    0 /   6
[tb_pin] Currently allocated     0.00E+00 Mbytes, locked:    0 /   0

     iteration #  8     ecut=    40.00 Ry     beta= 0.40
     Davidson diagonalization with overlap

---- Real-time Memory Report at c_bands before calling an iterative solver
          1005 MiB given to the printing process from OS
           807 MiB allocation reported by mallinfo(arena+hblkhd)
         59063 MiB available memory on the node where the printing process lives
     GPU memory used/free/total (MiB): 966 / 15314 / 16280
------------------
     ethr =  9.30E-06,  avg # of iterations =  1.0

     negative rho (up, down):  5.639E-05 1.849E-03

     total cpu time spent up to now is       31.5 secs

     total energy              =    -424.29790884 Ry
     estimated scf accuracy    <       0.00410882 Ry

     total magnetization       =     4.18 Bohr mag/cell
     absolute magnetization    =     4.40 Bohr mag/cell
[tb_dev] Currently allocated     4.69E-01 Mbytes, locked:    0 /   6
[tb_pin] Currently allocated     0.00E+00 Mbytes, locked:    0 /   0

     iteration #  9     ecut=    40.00 Ry     beta= 0.40
     Davidson diagonalization with overlap

---- Real-time Memory Report at c_bands before calling an iterative solver
          1007 MiB given to the printing process from OS
           807 MiB allocation reported by mallinfo(arena+hblkhd)
         59061 MiB available memory on the node where the printing process lives
     GPU memory used/free/total (MiB): 966 / 15314 / 16280
------------------
     ethr =  9.30E-06,  avg # of iterations =  1.2

     negative rho (up, down):  1.015E-04 1.781E-03

     total cpu time spent up to now is       33.3 secs

     total energy              =    -424.29880701 Ry
     estimated scf accuracy    <       0.00174805 Ry

     total magnetization       =     4.06 Bohr mag/cell
     absolute magnetization    =     4.27 Bohr mag/cell
[tb_dev] Currently allocated     4.69E-01 Mbytes, locked:    0 /   6
[tb_pin] Currently allocated     0.00E+00 Mbytes, locked:    0 /   0

     iteration # 10     ecut=    40.00 Ry     beta= 0.40
     Davidson diagonalization with overlap

---- Real-time Memory Report at c_bands before calling an iterative solver
          1009 MiB given to the printing process from OS
           807 MiB allocation reported by mallinfo(arena+hblkhd)
         59060 MiB available memory on the node where the printing process lives
     GPU memory used/free/total (MiB): 966 / 15314 / 16280
------------------
     c_bands:  1 eigenvalues not converged
     ethr =  4.16E-06,  avg # of iterations =  5.3

     negative rho (up, down):  1.478E-04 1.706E-03

     total cpu time spent up to now is       37.1 secs

     total energy              =    -424.29948036 Ry
     estimated scf accuracy    <       0.00655506 Ry

     total magnetization       =     3.93 Bohr mag/cell
     absolute magnetization    =     4.13 Bohr mag/cell
[tb_dev] Currently allocated     4.69E-01 Mbytes, locked:    0 /   6
[tb_pin] Currently allocated     0.00E+00 Mbytes, locked:    0 /   0

     iteration # 11     ecut=    40.00 Ry     beta= 0.40
     Davidson diagonalization with overlap

---- Real-time Memory Report at c_bands before calling an iterative solver
          1009 MiB given to the printing process from OS
           819 MiB allocation reported by mallinfo(arena+hblkhd)
         59061 MiB available memory on the node where the printing process lives
     GPU memory used/free/total (MiB): 966 / 15314 / 16280
------------------
     ethr =  4.16E-06,  avg # of iterations =  4.0

     negative rho (up, down):  2.009E-04 1.635E-03

     total cpu time spent up to now is       40.2 secs

     total energy              =    -424.29996072 Ry
     estimated scf accuracy    <       0.00058567 Ry

     total magnetization       =     3.66 Bohr mag/cell
     absolute magnetization    =     3.84 Bohr mag/cell
[tb_dev] Currently allocated     4.69E-01 Mbytes, locked:    0 /   6
[tb_pin] Currently allocated     0.00E+00 Mbytes, locked:    0 /   0

     iteration # 12     ecut=    40.00 Ry     beta= 0.40
     Davidson diagonalization with overlap

---- Real-time Memory Report at c_bands before calling an iterative solver
          1009 MiB given to the printing process from OS
           819 MiB allocation reported by mallinfo(arena+hblkhd)
         59061 MiB available memory on the node where the printing process lives
     GPU memory used/free/total (MiB): 966 / 15314 / 16280
------------------
     ethr =  1.39E-06,  avg # of iterations =  4.6

     negative rho (up, down):  2.238E-04 1.615E-03

     total cpu time spent up to now is       43.6 secs

     total energy              =    -424.30152206 Ry
     estimated scf accuracy    <       0.00140070 Ry

     total magnetization       =     3.20 Bohr mag/cell
     absolute magnetization    =     3.37 Bohr mag/cell
[tb_dev] Currently allocated     4.69E-01 Mbytes, locked:    0 /   6
[tb_pin] Currently allocated     0.00E+00 Mbytes, locked:    0 /   0

     iteration # 13     ecut=    40.00 Ry     beta= 0.40
     Davidson diagonalization with overlap

---- Real-time Memory Report at c_bands before calling an iterative solver
          1009 MiB given to the printing process from OS
           819 MiB allocation reported by mallinfo(arena+hblkhd)
         59054 MiB available memory on the node where the printing process lives
     GPU memory used/free/total (MiB): 966 / 15314 / 16280
------------------
     ethr =  1.39E-06,  avg # of iterations =  5.2

     negative rho (up, down):  2.688E-04 1.577E-03

     total cpu time spent up to now is       47.3 secs

     total energy              =    -424.30172063 Ry
     estimated scf accuracy    <       0.00193752 Ry

     total magnetization       =     3.07 Bohr mag/cell
     absolute magnetization    =     3.23 Bohr mag/cell
[tb_dev] Currently allocated     4.69E-01 Mbytes, locked:    0 /   6
[tb_pin] Currently allocated     0.00E+00 Mbytes, locked:    0 /   0

     iteration # 14     ecut=    40.00 Ry     beta= 0.40
     Davidson diagonalization with overlap

---- Real-time Memory Report at c_bands before calling an iterative solver
          1009 MiB given to the printing process from OS
           819 MiB allocation reported by mallinfo(arena+hblkhd)
         59056 MiB available memory on the node where the printing process lives
     GPU memory used/free/total (MiB): 966 / 15314 / 16280
------------------
     ethr =  1.39E-06,  avg # of iterations =  5.9

     negative rho (up, down):  2.087E-04 1.636E-03

     total cpu time spent up to now is       51.3 secs

     total energy              =    -424.29925167 Ry
     estimated scf accuracy    <       0.01618937 Ry

     total magnetization       =     2.62 Bohr mag/cell
     absolute magnetization    =     2.79 Bohr mag/cell
[tb_dev] Currently allocated     4.69E-01 Mbytes, locked:    0 /   6
[tb_pin] Currently allocated     0.00E+00 Mbytes, locked:    0 /   0

     iteration # 15     ecut=    40.00 Ry     beta= 0.40
     Davidson diagonalization with overlap

---- Real-time Memory Report at c_bands before calling an iterative solver
          1009 MiB given to the printing process from OS
           819 MiB allocation reported by mallinfo(arena+hblkhd)
         59058 MiB available memory on the node where the printing process lives
     GPU memory used/free/total (MiB): 966 / 15314 / 16280
------------------
     ethr =  1.39E-06,  avg # of iterations =  5.5

     negative rho (up, down):  1.777E-04 1.664E-03

     total cpu time spent up to now is       55.1 secs

     total energy              =    -424.30065912 Ry
     estimated scf accuracy    <       0.00395198 Ry

     total magnetization       =     3.18 Bohr mag/cell
     absolute magnetization    =     3.34 Bohr mag/cell
[tb_dev] Currently allocated     4.69E-01 Mbytes, locked:    0 /   6
[tb_pin] Currently allocated     0.00E+00 Mbytes, locked:    0 /   0

     iteration # 16     ecut=    40.00 Ry     beta= 0.40
     Davidson diagonalization with overlap

---- Real-time Memory Report at c_bands before calling an iterative solver
          1009 MiB given to the printing process from OS
           819 MiB allocation reported by mallinfo(arena+hblkhd)
         59059 MiB available memory on the node where the printing process lives
     GPU memory used/free/total (MiB): 966 / 15314 / 16280
------------------
     ethr =  1.39E-06,  avg # of iterations =  5.2

     negative rho (up, down):  1.470E-04 1.692E-03

     total cpu time spent up to now is       58.8 secs

     total energy              =    -424.30029551 Ry
     estimated scf accuracy    <       0.00094381 Ry

     total magnetization       =     3.38 Bohr mag/cell
     absolute magnetization    =     3.54 Bohr mag/cell
[tb_dev] Currently allocated     4.69E-01 Mbytes, locked:    0 /   6
[tb_pin] Currently allocated     0.00E+00 Mbytes, locked:    0 /   0

     iteration # 17     ecut=    40.00 Ry     beta= 0.40
     Davidson diagonalization with overlap

---- Real-time Memory Report at c_bands before calling an iterative solver
          1009 MiB given to the printing process from OS
           819 MiB allocation reported by mallinfo(arena+hblkhd)
         59061 MiB available memory on the node where the printing process lives
     GPU memory used/free/total (MiB): 966 / 15314 / 16280
------------------
     ethr =  1.39E-06,  avg # of iterations =  3.8

     negative rho (up, down):  1.764E-04 1.664E-03

     total cpu time spent up to now is       61.9 secs

     total energy              =    -424.30088684 Ry
     estimated scf accuracy    <       0.00141136 Ry

     total magnetization       =     3.56 Bohr mag/cell
     absolute magnetization    =     3.72 Bohr mag/cell
[tb_dev] Currently allocated     4.69E-01 Mbytes, locked:    0 /   6
[tb_pin] Currently allocated     0.00E+00 Mbytes, locked:    0 /   0

     iteration # 18     ecut=    40.00 Ry     beta= 0.40
     Davidson diagonalization with overlap

---- Real-time Memory Report at c_bands before calling an iterative solver
          1009 MiB given to the printing process from OS
           819 MiB allocation reported by mallinfo(arena+hblkhd)
         59061 MiB available memory on the node where the printing process lives
     GPU memory used/free/total (MiB): 966 / 15314 / 16280
------------------
     ethr =  1.39E-06,  avg # of iterations =  2.7

     negative rho (up, down):  1.953E-04 1.648E-03

     total cpu time spent up to now is       64.4 secs

     total energy              =    -424.30129732 Ry
     estimated scf accuracy    <       0.00073252 Ry

     total magnetization       =     3.39 Bohr mag/cell
     absolute magnetization    =     3.56 Bohr mag/cell
[tb_dev] Currently allocated     4.69E-01 Mbytes, locked:    0 /   6
[tb_pin] Currently allocated     0.00E+00 Mbytes, locked:    0 /   0

     iteration # 19     ecut=    40.00 Ry     beta= 0.40
     Davidson diagonalization with overlap

---- Real-time Memory Report at c_bands before calling an iterative solver
          1009 MiB given to the printing process from OS
           819 MiB allocation reported by mallinfo(arena+hblkhd)
         59061 MiB available memory on the node where the printing process lives
     GPU memory used/free/total (MiB): 966 / 15314 / 16280
------------------
     ethr =  1.39E-06,  avg # of iterations =  3.3

     negative rho (up, down):  2.143E-04 1.631E-03

     total cpu time spent up to now is       67.2 secs

     total energy              =    -424.30155696 Ry
     estimated scf accuracy    <       0.00020126 Ry

     total magnetization       =     3.28 Bohr mag/cell
     absolute magnetization    =     3.44 Bohr mag/cell
[tb_dev] Currently allocated     4.69E-01 Mbytes, locked:    0 /   6
[tb_pin] Currently allocated     0.00E+00 Mbytes, locked:    0 /   0

     iteration # 20     ecut=    40.00 Ry     beta= 0.40
     Davidson diagonalization with overlap

---- Real-time Memory Report at c_bands before calling an iterative solver
          1009 MiB given to the printing process from OS
           819 MiB allocation reported by mallinfo(arena+hblkhd)
         59061 MiB available memory on the node where the printing process lives
     GPU memory used/free/total (MiB): 966 / 15314 / 16280
------------------
     ethr =  4.79E-07,  avg # of iterations =  5.3

     negative rho (up, down):  2.204E-04 1.625E-03

     total cpu time spent up to now is       70.8 secs

     total energy              =    -424.30182947 Ry
     estimated scf accuracy    <       0.00013944 Ry

     total magnetization       =     3.15 Bohr mag/cell
     absolute magnetization    =     3.31 Bohr mag/cell
[tb_dev] Currently allocated     4.69E-01 Mbytes, locked:    0 /   6
[tb_pin] Currently allocated     0.00E+00 Mbytes, locked:    0 /   0

     iteration # 21     ecut=    40.00 Ry     beta= 0.40
     Davidson diagonalization with overlap

---- Real-time Memory Report at c_bands before calling an iterative solver
          1009 MiB given to the printing process from OS
           819 MiB allocation reported by mallinfo(arena+hblkhd)
         59061 MiB available memory on the node where the printing process lives
     GPU memory used/free/total (MiB): 966 / 15314 / 16280
------------------
     ethr =  3.32E-07,  avg # of iterations =  2.1

     negative rho (up, down):  2.193E-04 1.626E-03

     total cpu time spent up to now is       73.1 secs

     total energy              =    -424.30183663 Ry
     estimated scf accuracy    <       0.00012273 Ry

     total magnetization       =     3.11 Bohr mag/cell
     absolute magnetization    =     3.27 Bohr mag/cell
[tb_dev] Currently allocated     4.69E-01 Mbytes, locked:    0 /   6
[tb_pin] Currently allocated     0.00E+00 Mbytes, locked:    0 /   0

     iteration # 22     ecut=    40.00 Ry     beta= 0.40
     Davidson diagonalization with overlap

---- Real-time Memory Report at c_bands before calling an iterative solver
          1009 MiB given to the printing process from OS
           819 MiB allocation reported by mallinfo(arena+hblkhd)
         59061 MiB available memory on the node where the printing process lives
     GPU memory used/free/total (MiB): 966 / 15314 / 16280
------------------
     ethr =  2.92E-07,  avg # of iterations =  1.0

     negative rho (up, down):  2.087E-04 1.634E-03

     total cpu time spent up to now is       74.9 secs

     total energy              =    -424.30161042 Ry
     estimated scf accuracy    <       0.00012678 Ry

     total magnetization       =     3.11 Bohr mag/cell
     absolute magnetization    =     3.28 Bohr mag/cell
[tb_dev] Currently allocated     4.69E-01 Mbytes, locked:    0 /   6
[tb_pin] Currently allocated     0.00E+00 Mbytes, locked:    0 /   0

     iteration # 23     ecut=    40.00 Ry     beta= 0.40
     Davidson diagonalization with overlap

---- Real-time Memory Report at c_bands before calling an iterative solver
          1009 MiB given to the printing process from OS
           819 MiB allocation reported by mallinfo(arena+hblkhd)
         59061 MiB available memory on the node where the printing process lives
     GPU memory used/free/total (MiB): 966 / 15314 / 16280
------------------
     ethr =  2.92E-07,  avg # of iterations =  3.1

     negative rho (up, down):  2.436E-04 1.603E-03

     total cpu time spent up to now is       77.5 secs

     total energy              =    -424.30147776 Ry
     estimated scf accuracy    <       0.00015012 Ry

     total magnetization       =     3.19 Bohr mag/cell
     absolute magnetization    =     3.35 Bohr mag/cell
[tb_dev] Currently allocated     4.69E-01 Mbytes, locked:    0 /   6
[tb_pin] Currently allocated     0.00E+00 Mbytes, locked:    0 /   0

     iteration # 24     ecut=    40.00 Ry     beta= 0.40
     Davidson diagonalization with overlap

---- Real-time Memory Report at c_bands before calling an iterative solver
          1009 MiB given to the printing process from OS
           819 MiB allocation reported by mallinfo(arena+hblkhd)
         59062 MiB available memory on the node where the printing process lives
     GPU memory used/free/total (MiB): 966 / 15314 / 16280
------------------
     ethr =  2.92E-07,  avg # of iterations =  6.0

     negative rho (up, down):  2.389E-04 1.607E-03

     total cpu time spent up to now is       81.7 secs

     total energy              =    -424.30211015 Ry
     estimated scf accuracy    <       0.00024157 Ry

     total magnetization       =     2.92 Bohr mag/cell
     absolute magnetization    =     3.08 Bohr mag/cell
[tb_dev] Currently allocated     4.69E-01 Mbytes, locked:    0 /   6
[tb_pin] Currently allocated     0.00E+00 Mbytes, locked:    0 /   0

     iteration # 25     ecut=    40.00 Ry     beta= 0.40
     Davidson diagonalization with overlap

---- Real-time Memory Report at c_bands before calling an iterative solver
          1009 MiB given to the printing process from OS
           819 MiB allocation reported by mallinfo(arena+hblkhd)
         59062 MiB available memory on the node where the printing process lives
     GPU memory used/free/total (MiB): 966 / 15314 / 16280
------------------
     ethr =  2.92E-07,  avg # of iterations =  1.5

     negative rho (up, down):  2.415E-04 1.603E-03

     total cpu time spent up to now is       83.6 secs

     total energy              =    -424.30217642 Ry
     estimated scf accuracy    <       0.00022424 Ry

     total magnetization       =     2.96 Bohr mag/cell
     absolute magnetization    =     3.11 Bohr mag/cell
[tb_dev] Currently allocated     4.69E-01 Mbytes, locked:    0 /   6
[tb_pin] Currently allocated     0.00E+00 Mbytes, locked:    0 /   0

     iteration # 26     ecut=    40.00 Ry     beta= 0.40
     Davidson diagonalization with overlap

---- Real-time Memory Report at c_bands before calling an iterative solver
          1009 MiB given to the printing process from OS
           819 MiB allocation reported by mallinfo(arena+hblkhd)
         59062 MiB available memory on the node where the printing process lives
     GPU memory used/free/total (MiB): 966 / 15314 / 16280
------------------
     ethr =  2.92E-07,  avg # of iterations =  1.1

     negative rho (up, down):  1.779E-04 1.664E-03

     total cpu time spent up to now is       85.4 secs

     total energy              =    -424.29907794 Ry
     estimated scf accuracy    <       0.00027882 Ry

     total magnetization       =     2.93 Bohr mag/cell
     absolute magnetization    =     3.09 Bohr mag/cell
[tb_dev] Currently allocated     4.69E-01 Mbytes, locked:    0 /   6
[tb_pin] Currently allocated     0.00E+00 Mbytes, locked:    0 /   0

     iteration # 27     ecut=    40.00 Ry     beta= 0.40
     Davidson diagonalization with overlap

---- Real-time Memory Report at c_bands before calling an iterative solver
          1009 MiB given to the printing process from OS
           819 MiB allocation reported by mallinfo(arena+hblkhd)
         59063 MiB available memory on the node where the printing process lives
     GPU memory used/free/total (MiB): 966 / 15314 / 16280
------------------
     ethr =  2.92E-07,  avg # of iterations =  7.3

     negative rho (up, down):  2.188E-04 1.634E-03

     total cpu time spent up to now is       90.2 secs

     total energy              =    -424.30096707 Ry
     estimated scf accuracy    <       0.00041504 Ry

     total magnetization       =     3.39 Bohr mag/cell
     absolute magnetization    =     3.56 Bohr mag/cell
[tb_dev] Currently allocated     4.69E-01 Mbytes, locked:    0 /   6
[tb_pin] Currently allocated     0.00E+00 Mbytes, locked:    0 /   0

     iteration # 28     ecut=    40.00 Ry     beta= 0.40
     Davidson diagonalization with overlap

---- Real-time Memory Report at c_bands before calling an iterative solver
          1009 MiB given to the printing process from OS
           819 MiB allocation reported by mallinfo(arena+hblkhd)
         59064 MiB available memory on the node where the printing process lives
     GPU memory used/free/total (MiB): 966 / 15314 / 16280
------------------
     ethr =  2.92E-07,  avg # of iterations =  6.8

     negative rho (up, down):  2.068E-04 1.637E-03

     total cpu time spent up to now is       94.6 secs

     total energy              =    -424.30159705 Ry
     estimated scf accuracy    <       0.00013245 Ry

     total magnetization       =     3.13 Bohr mag/cell
     absolute magnetization    =     3.29 Bohr mag/cell
[tb_dev] Currently allocated     4.69E-01 Mbytes, locked:    0 /   6
[tb_pin] Currently allocated     0.00E+00 Mbytes, locked:    0 /   0

     iteration # 29     ecut=    40.00 Ry     beta= 0.40
     Davidson diagonalization with overlap

---- Real-time Memory Report at c_bands before calling an iterative solver
          1009 MiB given to the printing process from OS
           819 MiB allocation reported by mallinfo(arena+hblkhd)
         59064 MiB available memory on the node where the printing process lives
     GPU memory used/free/total (MiB): 966 / 15314 / 16280
------------------
     ethr =  2.92E-07,  avg # of iterations =  4.7

     negative rho (up, down):  2.070E-04 1.646E-03

     total cpu time spent up to now is       97.8 secs

     total energy              =    -424.30161068 Ry
     estimated scf accuracy    <       0.00022360 Ry

     total magnetization       =     3.18 Bohr mag/cell
     absolute magnetization    =     3.34 Bohr mag/cell
[tb_dev] Currently allocated     4.69E-01 Mbytes, locked:    0 /   6
[tb_pin] Currently allocated     0.00E+00 Mbytes, locked:    0 /   0

     iteration # 30     ecut=    40.00 Ry     beta= 0.40
     Davidson diagonalization with overlap

---- Real-time Memory Report at c_bands before calling an iterative solver
          1009 MiB given to the printing process from OS
           819 MiB allocation reported by mallinfo(arena+hblkhd)
         59065 MiB available memory on the node where the printing process lives
     GPU memory used/free/total (MiB): 966 / 15314 / 16280
------------------
     ethr =  2.92E-07,  avg # of iterations =  2.3

     negative rho (up, down):  2.023E-04 1.651E-03

     total cpu time spent up to now is      100.0 secs

     total energy              =    -424.30157124 Ry
     estimated scf accuracy    <       0.00015608 Ry

     total magnetization       =     3.24 Bohr mag/cell
     absolute magnetization    =     3.40 Bohr mag/cell
[tb_dev] Currently allocated     4.69E-01 Mbytes, locked:    0 /   6
[tb_pin] Currently allocated     0.00E+00 Mbytes, locked:    0 /   0

     iteration # 31     ecut=    40.00 Ry     beta= 0.40
     Davidson diagonalization with overlap

---- Real-time Memory Report at c_bands before calling an iterative solver
          1009 MiB given to the printing process from OS
           819 MiB allocation reported by mallinfo(arena+hblkhd)
         59065 MiB available memory on the node where the printing process lives
     GPU memory used/free/total (MiB): 966 / 15314 / 16280
------------------
     ethr =  2.92E-07,  avg # of iterations =  1.5

     negative rho (up, down):  1.779E-04 1.669E-03

     total cpu time spent up to now is      102.0 secs

     total energy              =    -424.30094770 Ry
     estimated scf accuracy    <       0.00016878 Ry

     total magnetization       =     3.27 Bohr mag/cell
     absolute magnetization    =     3.43 Bohr mag/cell
[tb_dev] Currently allocated     4.69E-01 Mbytes, locked:    0 /   6
[tb_pin] Currently allocated     0.00E+00 Mbytes, locked:    0 /   0

     iteration # 32     ecut=    40.00 Ry     beta= 0.40
     Davidson diagonalization with overlap

---- Real-time Memory Report at c_bands before calling an iterative solver
          1009 MiB given to the printing process from OS
           819 MiB allocation reported by mallinfo(arena+hblkhd)
         59064 MiB available memory on the node where the printing process lives
     GPU memory used/free/total (MiB): 966 / 15314 / 16280
------------------
     ethr =  2.92E-07,  avg # of iterations =  5.7

     negative rho (up, down):  4.127E-04 1.476E-03

     total cpu time spent up to now is      106.0 secs

     total energy              =    -424.27540914 Ry
     estimated scf accuracy    <       0.00016289 Ry

     total magnetization       =     3.41 Bohr mag/cell
     absolute magnetization    =     3.57 Bohr mag/cell
[tb_dev] Currently allocated     4.69E-01 Mbytes, locked:    0 /   6
[tb_pin] Currently allocated     0.00E+00 Mbytes, locked:    0 /   0

     iteration # 33     ecut=    40.00 Ry     beta= 0.40
     Davidson diagonalization with overlap

---- Real-time Memory Report at c_bands before calling an iterative solver
          1009 MiB given to the printing process from OS
           819 MiB allocation reported by mallinfo(arena+hblkhd)
         59064 MiB available memory on the node where the printing process lives
     GPU memory used/free/total (MiB): 966 / 15314 / 16280
------------------
     c_bands:  1 eigenvalues not converged
     c_bands:  1 eigenvalues not converged
     c_bands:  1 eigenvalues not converged
     c_bands:  1 eigenvalues not converged
     ethr =  2.92E-07,  avg # of iterations = 13.3

     negative rho (up, down):  2.527E-04 1.595E-03

     total cpu time spent up to now is      113.7 secs

     total energy              =    -424.27911815 Ry
     estimated scf accuracy    <       0.00615134 Ry

     total magnetization       =     1.12 Bohr mag/cell
     absolute magnetization    =     3.27 Bohr mag/cell
[tb_dev] Currently allocated     4.69E-01 Mbytes, locked:    0 /   6
[tb_pin] Currently allocated     0.00E+00 Mbytes, locked:    0 /   0

     iteration # 34     ecut=    40.00 Ry     beta= 0.40
     Davidson diagonalization with overlap

---- Real-time Memory Report at c_bands before calling an iterative solver
          1009 MiB given to the printing process from OS
           819 MiB allocation reported by mallinfo(arena+hblkhd)
         59065 MiB available memory on the node where the printing process lives
     GPU memory used/free/total (MiB): 966 / 15314 / 16280
------------------
     c_bands:  1 eigenvalues not converged
     c_bands:  1 eigenvalues not converged
     ethr =  2.92E-07,  avg # of iterations = 12.0

     negative rho (up, down):  2.357E-04 1.617E-03

     total cpu time spent up to now is      120.9 secs

     total energy              =    -424.30182747 Ry
     estimated scf accuracy    <       0.00023546 Ry

     total magnetization       =     2.82 Bohr mag/cell
     absolute magnetization    =     2.98 Bohr mag/cell
[tb_dev] Currently allocated     4.69E-01 Mbytes, locked:    0 /   6
[tb_pin] Currently allocated     0.00E+00 Mbytes, locked:    0 /   0

     iteration # 35     ecut=    40.00 Ry     beta= 0.40
     Davidson diagonalization with overlap

---- Real-time Memory Report at c_bands before calling an iterative solver
          1009 MiB given to the printing process from OS
           819 MiB allocation reported by mallinfo(arena+hblkhd)
         59065 MiB available memory on the node where the printing process lives
     GPU memory used/free/total (MiB): 966 / 15314 / 16280
------------------
     ethr =  2.92E-07,  avg # of iterations =  4.0

     negative rho (up, down):  1.961E-04 1.651E-03

     total cpu time spent up to now is      124.0 secs

     total energy              =    -424.30065219 Ry
     estimated scf accuracy    <       0.00011861 Ry

     total magnetization       =     3.00 Bohr mag/cell
     absolute magnetization    =     3.16 Bohr mag/cell
[tb_dev] Currently allocated     4.69E-01 Mbytes, locked:    0 /   6
[tb_pin] Currently allocated     0.00E+00 Mbytes, locked:    0 /   0

     iteration # 36     ecut=    40.00 Ry     beta= 0.40
     Davidson diagonalization with overlap

---- Real-time Memory Report at c_bands before calling an iterative solver
          1009 MiB given to the printing process from OS
           819 MiB allocation reported by mallinfo(arena+hblkhd)
         59065 MiB available memory on the node where the printing process lives
     GPU memory used/free/total (MiB): 966 / 15314 / 16280
------------------
     ethr =  2.82E-07,  avg # of iterations =  7.1

     negative rho (up, down):  1.748E-04 1.667E-03

     total cpu time spent up to now is      128.6 secs

     total energy              =    -424.30099700 Ry
     estimated scf accuracy    <       0.00007760 Ry

     total magnetization       =     3.28 Bohr mag/cell
     absolute magnetization    =     3.44 Bohr mag/cell
[tb_dev] Currently allocated     4.69E-01 Mbytes, locked:    0 /   6
[tb_pin] Currently allocated     0.00E+00 Mbytes, locked:    0 /   0

     iteration # 37     ecut=    40.00 Ry     beta= 0.40
     Davidson diagonalization with overlap

---- Real-time Memory Report at c_bands before calling an iterative solver
          1009 MiB given to the printing process from OS
           819 MiB allocation reported by mallinfo(arena+hblkhd)
         59065 MiB available memory on the node where the printing process lives
     GPU memory used/free/total (MiB): 966 / 15314 / 16280
------------------
     ethr =  1.85E-07,  avg # of iterations =  5.9

     negative rho (up, down):  1.799E-04 1.663E-03

     total cpu time spent up to now is      132.7 secs

     total energy              =    -424.30129630 Ry
     estimated scf accuracy    <       0.00011087 Ry

     total magnetization       =     3.40 Bohr mag/cell
     absolute magnetization    =     3.56 Bohr mag/cell
[tb_dev] Currently allocated     4.69E-01 Mbytes, locked:    0 /   6
[tb_pin] Currently allocated     0.00E+00 Mbytes, locked:    0 /   0

     iteration # 38     ecut=    40.00 Ry     beta= 0.40
     Davidson diagonalization with overlap

---- Real-time Memory Report at c_bands before calling an iterative solver
          1009 MiB given to the printing process from OS
           819 MiB allocation reported by mallinfo(arena+hblkhd)
         59066 MiB available memory on the node where the printing process lives
     GPU memory used/free/total (MiB): 966 / 15314 / 16280
------------------
     ethr =  1.85E-07,  avg # of iterations =  1.3

     negative rho (up, down):  1.690E-04 1.672E-03

     total cpu time spent up to now is      134.5 secs

     total energy              =    -424.30109027 Ry
     estimated scf accuracy    <       0.00010108 Ry

     total magnetization       =     3.37 Bohr mag/cell
     absolute magnetization    =     3.53 Bohr mag/cell
[tb_dev] Currently allocated     4.69E-01 Mbytes, locked:    0 /   6
[tb_pin] Currently allocated     0.00E+00 Mbytes, locked:    0 /   0

     iteration # 39     ecut=    40.00 Ry     beta= 0.40
     Davidson diagonalization with overlap

---- Real-time Memory Report at c_bands before calling an iterative solver
          1009 MiB given to the printing process from OS
           819 MiB allocation reported by mallinfo(arena+hblkhd)
         59066 MiB available memory on the node where the printing process lives
     GPU memory used/free/total (MiB): 966 / 15314 / 16280
------------------
     ethr =  1.85E-07,  avg # of iterations =  2.8

     negative rho (up, down):  1.714E-04 1.670E-03

     total cpu time spent up to now is      137.0 secs

     total energy              =    -424.30117608 Ry
     estimated scf accuracy    <       0.00012797 Ry

     total magnetization       =     3.43 Bohr mag/cell
     absolute magnetization    =     3.59 Bohr mag/cell
[tb_dev] Currently allocated     4.69E-01 Mbytes, locked:    0 /   6
[tb_pin] Currently allocated     0.00E+00 Mbytes, locked:    0 /   0

     iteration # 40     ecut=    40.00 Ry     beta= 0.40
     Davidson diagonalization with overlap

---- Real-time Memory Report at c_bands before calling an iterative solver
          1009 MiB given to the printing process from OS
           819 MiB allocation reported by mallinfo(arena+hblkhd)
         59065 MiB available memory on the node where the printing process lives
     GPU memory used/free/total (MiB): 966 / 15314 / 16280
------------------
     ethr =  1.85E-07,  avg # of iterations =  1.0

     negative rho (up, down):  1.803E-04 1.662E-03

     total cpu time spent up to now is      138.8 secs

     total energy              =    -424.30128182 Ry
     estimated scf accuracy    <       0.00011482 Ry

     total magnetization       =     3.42 Bohr mag/cell
     absolute magnetization    =     3.58 Bohr mag/cell
[tb_dev] Currently allocated     4.69E-01 Mbytes, locked:    0 /   6
[tb_pin] Currently allocated     0.00E+00 Mbytes, locked:    0 /   0

     iteration # 41     ecut=    40.00 Ry     beta= 0.40
     Davidson diagonalization with overlap

---- Real-time Memory Report at c_bands before calling an iterative solver
          1009 MiB given to the printing process from OS
           819 MiB allocation reported by mallinfo(arena+hblkhd)
         59065 MiB available memory on the node where the printing process lives
     GPU memory used/free/total (MiB): 966 / 15314 / 16280
------------------
     ethr =  1.85E-07,  avg # of iterations =  2.2

     negative rho (up, down):  1.915E-04 1.652E-03

     total cpu time spent up to now is      141.0 secs

     total energy              =    -424.30141105 Ry
     estimated scf accuracy    <       0.00009955 Ry

     total magnetization       =     3.36 Bohr mag/cell
     absolute magnetization    =     3.53 Bohr mag/cell
[tb_dev] Currently allocated     4.69E-01 Mbytes, locked:    0 /   6
[tb_pin] Currently allocated     0.00E+00 Mbytes, locked:    0 /   0

     iteration # 42     ecut=    40.00 Ry     beta= 0.40
     Davidson diagonalization with overlap

---- Real-time Memory Report at c_bands before calling an iterative solver
          1010 MiB given to the printing process from OS
           819 MiB allocation reported by mallinfo(arena+hblkhd)
         59065 MiB available memory on the node where the printing process lives
     GPU memory used/free/total (MiB): 966 / 15314 / 16280
------------------
     ethr =  1.85E-07,  avg # of iterations =  4.9

     negative rho (up, down):  2.972E-04 1.565E-03

     total cpu time spent up to now is      144.5 secs

     total energy              =    -424.29688478 Ry
     estimated scf accuracy    <       0.00009379 Ry

     total magnetization       =     3.29 Bohr mag/cell
     absolute magnetization    =     3.45 Bohr mag/cell
[tb_dev] Currently allocated     4.69E-01 Mbytes, locked:    0 /   6
[tb_pin] Currently allocated     0.00E+00 Mbytes, locked:    0 /   0

     iteration # 43     ecut=    40.00 Ry     beta= 0.40
     Davidson diagonalization with overlap

---- Real-time Memory Report at c_bands before calling an iterative solver
          1010 MiB given to the printing process from OS
           819 MiB allocation reported by mallinfo(arena+hblkhd)
         59065 MiB available memory on the node where the printing process lives
     GPU memory used/free/total (MiB): 966 / 15314 / 16280
------------------
     c_bands:  1 eigenvalues not converged
     ethr =  1.85E-07,  avg # of iterations = 11.0

     negative rho (up, down):  2.550E-04 1.598E-03

     total cpu time spent up to now is      151.2 secs

     total energy              =    -424.30111264 Ry
     estimated scf accuracy    <       0.00100280 Ry

     total magnetization       =     2.41 Bohr mag/cell
     absolute magnetization    =     2.66 Bohr mag/cell
[tb_dev] Currently allocated     4.69E-01 Mbytes, locked:    0 /   6
[tb_pin] Currently allocated     0.00E+00 Mbytes, locked:    0 /   0

     iteration # 44     ecut=    40.00 Ry     beta= 0.40
     Davidson diagonalization with overlap

---- Real-time Memory Report at c_bands before calling an iterative solver
          1010 MiB given to the printing process from OS
           819 MiB allocation reported by mallinfo(arena+hblkhd)
         59066 MiB available memory on the node where the printing process lives
     GPU memory used/free/total (MiB): 966 / 15314 / 16280
------------------
     ethr =  1.85E-07,  avg # of iterations =  7.4

     negative rho (up, down):  2.110E-04 1.636E-03

     total cpu time spent up to now is      155.9 secs

     total energy              =    -424.30050821 Ry
     estimated scf accuracy    <       0.00036918 Ry

     total magnetization       =     2.81 Bohr mag/cell
     absolute magnetization    =     2.98 Bohr mag/cell
[tb_dev] Currently allocated     4.69E-01 Mbytes, locked:    0 /   6
[tb_pin] Currently allocated     0.00E+00 Mbytes, locked:    0 /   0

     iteration # 45     ecut=    40.00 Ry     beta= 0.40
     Davidson diagonalization with overlap

---- Real-time Memory Report at c_bands before calling an iterative solver
          1010 MiB given to the printing process from OS
           819 MiB allocation reported by mallinfo(arena+hblkhd)
         59056 MiB available memory on the node where the printing process lives
     GPU memory used/free/total (MiB): 966 / 15314 / 16280
------------------
     ethr =  1.85E-07,  avg # of iterations =  7.1

     negative rho (up, down):  2.082E-04 1.638E-03

     total cpu time spent up to now is      160.7 secs

     total energy              =    -424.30170136 Ry
     estimated scf accuracy    <       0.00014237 Ry

     total magnetization       =     3.16 Bohr mag/cell
     absolute magnetization    =     3.32 Bohr mag/cell
[tb_dev] Currently allocated     4.69E-01 Mbytes, locked:    0 /   6
[tb_pin] Currently allocated     0.00E+00 Mbytes, locked:    0 /   0

     iteration # 46     ecut=    40.00 Ry     beta= 0.40
     Davidson diagonalization with overlap

---- Real-time Memory Report at c_bands before calling an iterative solver
          1010 MiB given to the printing process from OS
           819 MiB allocation reported by mallinfo(arena+hblkhd)
         59060 MiB available memory on the node where the printing process lives
     GPU memory used/free/total (MiB): 966 / 15314 / 16280
------------------
     ethr =  1.85E-07,  avg # of iterations =  1.2

     negative rho (up, down):  2.076E-04 1.639E-03

     total cpu time spent up to now is      162.5 secs

     total energy              =    -424.30169563 Ry
     estimated scf accuracy    <       0.00015085 Ry

     total magnetization       =     3.18 Bohr mag/cell
     absolute magnetization    =     3.34 Bohr mag/cell
[tb_dev] Currently allocated     4.69E-01 Mbytes, locked:    0 /   6
[tb_pin] Currently allocated     0.00E+00 Mbytes, locked:    0 /   0

     iteration # 47     ecut=    40.00 Ry     beta= 0.40
     Davidson diagonalization with overlap

---- Real-time Memory Report at c_bands before calling an iterative solver
          1010 MiB given to the printing process from OS
           819 MiB allocation reported by mallinfo(arena+hblkhd)
         59061 MiB available memory on the node where the printing process lives
     GPU memory used/free/total (MiB): 966 / 15314 / 16280
------------------
     ethr =  1.85E-07,  avg # of iterations =  1.0

     negative rho (up, down):  1.861E-04 1.656E-03

     total cpu time spent up to now is      164.3 secs

     total energy              =    -424.30116715 Ry
     estimated scf accuracy    <       0.00014461 Ry

     total magnetization       =     3.19 Bohr mag/cell
     absolute magnetization    =     3.35 Bohr mag/cell
[tb_dev] Currently allocated     4.69E-01 Mbytes, locked:    0 /   6
[tb_pin] Currently allocated     0.00E+00 Mbytes, locked:    0 /   0

     iteration # 48     ecut=    40.00 Ry     beta= 0.40
     Davidson diagonalization with overlap

---- Real-time Memory Report at c_bands before calling an iterative solver
          1010 MiB given to the printing process from OS
           819 MiB allocation reported by mallinfo(arena+hblkhd)
         59062 MiB available memory on the node where the printing process lives
     GPU memory used/free/total (MiB): 966 / 15314 / 16280
------------------
     ethr =  1.85E-07,  avg # of iterations =  6.1

     negative rho (up, down):  1.177E-04 1.712E-03

     total cpu time spent up to now is      168.4 secs

     total energy              =    -424.29792568 Ry
     estimated scf accuracy    <       0.00015750 Ry

     total magnetization       =     3.32 Bohr mag/cell
     absolute magnetization    =     3.48 Bohr mag/cell
[tb_dev] Currently allocated     4.69E-01 Mbytes, locked:    0 /   6
[tb_pin] Currently allocated     0.00E+00 Mbytes, locked:    0 /   0

     iteration # 49     ecut=    40.00 Ry     beta= 0.40
     Davidson diagonalization with overlap

---- Real-time Memory Report at c_bands before calling an iterative solver
          1010 MiB given to the printing process from OS
           819 MiB allocation reported by mallinfo(arena+hblkhd)
         59059 MiB available memory on the node where the printing process lives
     GPU memory used/free/total (MiB): 966 / 15314 / 16280
------------------
     c_bands:  1 eigenvalues not converged
     ethr =  1.85E-07,  avg # of iterations =  8.9

     negative rho (up, down):  1.257E-04 1.706E-03

     total cpu time spent up to now is      174.0 secs

     total energy              =    -424.30030830 Ry
     estimated scf accuracy    <       0.00037275 Ry

     total magnetization       =     3.69 Bohr mag/cell
     absolute magnetization    =     3.86 Bohr mag/cell
[tb_dev] Currently allocated     4.69E-01 Mbytes, locked:    0 /   6
[tb_pin] Currently allocated     0.00E+00 Mbytes, locked:    0 /   0

     iteration # 50     ecut=    40.00 Ry     beta= 0.40
     Davidson diagonalization with overlap

---- Real-time Memory Report at c_bands before calling an iterative solver
          1010 MiB given to the printing process from OS
           819 MiB allocation reported by mallinfo(arena+hblkhd)
         59063 MiB available memory on the node where the printing process lives
     GPU memory used/free/total (MiB): 966 / 15314 / 16280
------------------
     ethr =  1.85E-07,  avg # of iterations =  2.2

     negative rho (up, down):  1.920E-04 1.651E-03

     total cpu time spent up to now is      176.3 secs

     total energy              =    -424.29949620 Ry
     estimated scf accuracy    <       0.00031044 Ry

     total magnetization       =     3.65 Bohr mag/cell
     absolute magnetization    =     3.82 Bohr mag/cell
[tb_dev] Currently allocated     4.69E-01 Mbytes, locked:    0 /   6
[tb_pin] Currently allocated     0.00E+00 Mbytes, locked:    0 /   0

     iteration # 51     ecut=    40.00 Ry     beta= 0.40
     Davidson diagonalization with overlap

---- Real-time Memory Report at c_bands before calling an iterative solver
          1010 MiB given to the printing process from OS
           819 MiB allocation reported by mallinfo(arena+hblkhd)
         59063 MiB available memory on the node where the printing process lives
     GPU memory used/free/total (MiB): 966 / 15314 / 16280
------------------
[...]

---- Real-time Memory Report at c_bands before calling an iterative solver
          1010 MiB given to the printing process from OS
           819 MiB allocation reported by mallinfo(arena+hblkhd)
         59064 MiB available memory on the node where the printing process lives
     GPU memory used/free/total (MiB): 966 / 15314 / 16280
------------------
     c_bands:  1 eigenvalues not converged
     c_bands:  1 eigenvalues not converged
     c_bands:  1 eigenvalues not converged
     ethr =  1.85E-07,  avg # of iterations = 11.7

     negative rho (up, down):  1.111E-04 1.721E-03

     total cpu time spent up to now is      249.3 secs

     total energy              =    -424.29987570 Ry
     estimated scf accuracy    <       0.00042044 Ry

     total magnetization       =     3.68 Bohr mag/cell
     absolute magnetization    =     3.85 Bohr mag/cell
[tb_dev] Currently allocated     4.69E-01 Mbytes, locked:    0 /   6
[tb_pin] Currently allocated     0.00E+00 Mbytes, locked:    0 /   0

     iteration # 67     ecut=    40.00 Ry     beta= 0.40
     Davidson diagonalization with overlap

---- Real-time Memory Report at c_bands before calling an iterative solver
          1010 MiB given to the printing process from OS
           819 MiB allocation reported by mallinfo(arena+hblkhd)
         59064 MiB available memory on the node where the printing process lives
     GPU memory used/free/total (MiB): 966 / 15314 / 16280
------------------
     ethr =  1.85E-07,  avg # of iterations =  5.1

     negative rho (up, down):  5.337E-05 1.779E-03

     total cpu time spent up to now is      252.8 secs

     total energy              =    -424.29656145 Ry
     estimated scf accuracy    <       0.00049257 Ry

     total magnetization       =     3.73 Bohr mag/cell
     absolute magnetization    =     3.91 Bohr mag/cell
[tb_dev] Currently allocated     4.69E-01 Mbytes, locked:    0 /   6
[tb_pin] Currently allocated     0.00E+00 Mbytes, locked:    0 /   0

     iteration # 68     ecut=    40.00 Ry     beta= 0.40
     Davidson diagonalization with overlap

---- Real-time Memory Report at c_bands before calling an iterative solver
          1010 MiB given to the printing process from OS
           819 MiB allocation reported by mallinfo(arena+hblkhd)
         59064 MiB available memory on the node where the printing process lives
     GPU memory used/free/total (MiB): 966 / 15314 / 16280
------------------
     c_bands:  1 eigenvalues not converged
     c_bands:  1 eigenvalues not converged
     c_bands:  1 eigenvalues not converged
     ethr =  1.85E-07,  avg # of iterations =  8.3

     negative rho (up, down):  5.731E-05 1.775E-03

     total cpu time spent up to now is      258.1 secs

     total energy              =    -424.29811832 Ry
     estimated scf accuracy    <       0.00103945 Ry

     total magnetization       =     4.06 Bohr mag/cell
     absolute magnetization    =     4.24 Bohr mag/cell
[tb_dev] Currently allocated     4.69E-01 Mbytes, locked:    0 /   6
[tb_pin] Currently allocated     0.00E+00 Mbytes, locked:    0 /   0

     iteration # 69     ecut=    40.00 Ry     beta= 0.40
     Davidson diagonalization with overlap

---- Real-time Memory Report at c_bands before calling an iterative solver
          1010 MiB given to the printing process from OS
           819 MiB allocation reported by mallinfo(arena+hblkhd)
         59064 MiB available memory on the node where the printing process lives
     GPU memory used/free/total (MiB): 966 / 15314 / 16280
------------------
     ethr =  1.85E-07,  avg # of iterations =  1.2

     negative rho (up, down):  5.169E-05 1.765E-03

     total cpu time spent up to now is      260.0 secs

     total energy              =    -424.29784940 Ry
     estimated scf accuracy    <       0.00100804 Ry

     total magnetization       =     4.04 Bohr mag/cell
     absolute magnetization    =     4.22 Bohr mag/cell
[tb_dev] Currently allocated     4.69E-01 Mbytes, locked:    0 /   6
[tb_pin] Currently allocated     0.00E+00 Mbytes, locked:    0 /   0

     iteration # 70     ecut=    40.00 Ry     beta= 0.40
     Davidson diagonalization with overlap

---- Real-time Memory Report at c_bands before calling an iterative solver
          1010 MiB given to the printing process from OS
           819 MiB allocation reported by mallinfo(arena+hblkhd)
         59063 MiB available memory on the node where the printing process lives
     GPU memory used/free/total (MiB): 966 / 15314 / 16280
------------------
     ethr =  1.85E-07,  avg # of iterations =  5.7

     negative rho (up, down):  1.045E-04 1.718E-03

     total cpu time spent up to now is      263.9 secs

     total energy              =    -424.29866475 Ry
     estimated scf accuracy    <       0.00092089 Ry

     total magnetization       =     4.03 Bohr mag/cell
     absolute magnetization    =     4.21 Bohr mag/cell
[tb_dev] Currently allocated     4.69E-01 Mbytes, locked:    0 /   6
[tb_pin] Currently allocated     0.00E+00 Mbytes, locked:    0 /   0

     iteration # 71     ecut=    40.00 Ry     beta= 0.40
     Davidson diagonalization with overlap

---- Real-time Memory Report at c_bands before calling an iterative solver
          1010 MiB given to the printing process from OS
           819 MiB allocation reported by mallinfo(arena+hblkhd)
         59064 MiB available memory on the node where the printing process lives
     GPU memory used/free/total (MiB): 966 / 15314 / 16280
------------------
     ethr =  1.85E-07,  avg # of iterations =  7.4

     negative rho (up, down):  1.391E-04 1.686E-03

     total cpu time spent up to now is      268.7 secs

     total energy              =    -424.30010129 Ry
     estimated scf accuracy    <       0.00043108 Ry

     total magnetization       =     3.75 Bohr mag/cell
     absolute magnetization    =     3.92 Bohr mag/cell
[tb_dev] Currently allocated     4.69E-01 Mbytes, locked:    0 /   6
[tb_pin] Currently allocated     0.00E+00 Mbytes, locked:    0 /   0

     iteration # 72     ecut=    40.00 Ry     beta= 0.40
     Davidson diagonalization with overlap

---- Real-time Memory Report at c_bands before calling an iterative solver
          1010 MiB given to the printing process from OS
           819 MiB allocation reported by mallinfo(arena+hblkhd)
         59065 MiB available memory on the node where the printing process lives
     GPU memory used/free/total (MiB): 966 / 15314 / 16280
------------------
     c_bands:  1 eigenvalues not converged
     ethr =  1.85E-07,  avg # of iterations =  7.5

     negative rho (up, down):  1.630E-04 1.670E-03

     total cpu time spent up to now is      273.5 secs

     total energy              =    -424.30078342 Ry
     estimated scf accuracy    <       0.00022015 Ry

     total magnetization       =     3.57 Bohr mag/cell
     absolute magnetization    =     3.73 Bohr mag/cell
[tb_dev] Currently allocated     4.69E-01 Mbytes, locked:    0 /   6
[tb_pin] Currently allocated     0.00E+00 Mbytes, locked:    0 /   0

     iteration # 73     ecut=    40.00 Ry     beta= 0.40
     Davidson diagonalization with overlap

---- Real-time Memory Report at c_bands before calling an iterative solver
          1010 MiB given to the printing process from OS
           819 MiB allocation reported by mallinfo(arena+hblkhd)
         59065 MiB available memory on the node where the printing process lives
     GPU memory used/free/total (MiB): 966 / 15314 / 16280
------------------
     ethr =  1.85E-07,  avg # of iterations =  6.6

     negative rho (up, down):  2.149E-04 1.629E-03

     total cpu time spent up to now is      277.9 secs

     total energy              =    -424.30043096 Ry
     estimated scf accuracy    <       0.00014899 Ry

     total magnetization       =     3.45 Bohr mag/cell
     absolute magnetization    =     3.61 Bohr mag/cell
[tb_dev] Currently allocated     4.69E-01 Mbytes, locked:    0 /   6
[tb_pin] Currently allocated     0.00E+00 Mbytes, locked:    0 /   0

     iteration # 74     ecut=    40.00 Ry     beta= 0.40
     Davidson diagonalization with overlap

---- Real-time Memory Report at c_bands before calling an iterative solver
          1010 MiB given to the printing process from OS
           819 MiB allocation reported by mallinfo(arena+hblkhd)
         59065 MiB available memory on the node where the printing process lives
     GPU memory used/free/total (MiB): 966 / 15314 / 16280
------------------
     c_bands:  1 eigenvalues not converged
     ethr =  1.85E-07,  avg # of iterations =  8.2

     negative rho (up, down):  2.300E-04 1.618E-03

     total cpu time spent up to now is      283.1 secs

     total energy              =    -424.30185037 Ry
     estimated scf accuracy    <       0.00010834 Ry

     total magnetization       =     3.13 Bohr mag/cell
     absolute magnetization    =     3.29 Bohr mag/cell
[tb_dev] Currently allocated     4.69E-01 Mbytes, locked:    0 /   6
[tb_pin] Currently allocated     0.00E+00 Mbytes, locked:    0 /   0

     iteration # 75     ecut=    40.00 Ry     beta= 0.40
     Davidson diagonalization with overlap

---- Real-time Memory Report at c_bands before calling an iterative solver
          1010 MiB given to the printing process from OS
           819 MiB allocation reported by mallinfo(arena+hblkhd)
         59065 MiB available memory on the node where the printing process lives
     GPU memory used/free/total (MiB): 966 / 15314 / 16280
------------------
     ethr =  1.85E-07,  avg # of iterations =  5.8

     negative rho (up, down):  1.927E-04 1.647E-03

     total cpu time spent up to now is      287.1 secs

     total energy              =    -424.30068992 Ry
     estimated scf accuracy    <       0.00011701 Ry

     total magnetization       =     3.03 Bohr mag/cell
     absolute magnetization    =     3.18 Bohr mag/cell
[tb_dev] Currently allocated     4.69E-01 Mbytes, locked:    0 /   6
[tb_pin] Currently allocated     0.00E+00 Mbytes, locked:    0 /   0

     iteration # 76     ecut=    40.00 Ry     beta= 0.40
     Davidson diagonalization with overlap

---- Real-time Memory Report at c_bands before calling an iterative solver
          1010 MiB given to the printing process from OS
           819 MiB allocation reported by mallinfo(arena+hblkhd)
         59065 MiB available memory on the node where the printing process lives
     GPU memory used/free/total (MiB): 966 / 15314 / 16280
------------------
     ethr =  1.85E-07,  avg # of iterations =  7.2

     negative rho (up, down):  1.948E-04 1.644E-03

     total cpu time spent up to now is      291.6 secs

     total energy              =    -424.30151015 Ry
     estimated scf accuracy    <       0.00009765 Ry

     total magnetization       =     3.28 Bohr mag/cell
     absolute magnetization    =     3.44 Bohr mag/cell
[tb_dev] Currently allocated     4.69E-01 Mbytes, locked:    0 /   6
[tb_pin] Currently allocated     0.00E+00 Mbytes, locked:    0 /   0

     iteration # 77     ecut=    40.00 Ry     beta= 0.40
     Davidson diagonalization with overlap

---- Real-time Memory Report at c_bands before calling an iterative solver
          1010 MiB given to the printing process from OS
           819 MiB allocation reported by mallinfo(arena+hblkhd)
         59066 MiB available memory on the node where the printing process lives
     GPU memory used/free/total (MiB): 966 / 15314 / 16280
------------------
     ethr =  1.85E-07,  avg # of iterations =  1.0

     negative rho (up, down):  2.237E-04 1.617E-03

     total cpu time spent up to now is      293.4 secs

     total energy              =    -424.30144022 Ry
     estimated scf accuracy    <       0.00010288 Ry

     total magnetization       =     3.26 Bohr mag/cell
     absolute magnetization    =     3.42 Bohr mag/cell
[tb_dev] Currently allocated     4.69E-01 Mbytes, locked:    0 /   6
[tb_pin] Currently allocated     0.00E+00 Mbytes, locked:    0 /   0

     iteration # 78     ecut=    40.00 Ry     beta= 0.40
     Davidson diagonalization with overlap

---- Real-time Memory Report at c_bands before calling an iterative solver
          1010 MiB given to the printing process from OS
           819 MiB allocation reported by mallinfo(arena+hblkhd)
         59065 MiB available memory on the node where the printing process lives
     GPU memory used/free/total (MiB): 966 / 15314 / 16280
------------------
     ethr =  1.85E-07,  avg # of iterations =  6.3

     negative rho (up, down):  2.816E-04 1.563E-03

     total cpu time spent up to now is      297.7 secs

     total energy              =    -424.30087852 Ry
     estimated scf accuracy    <       0.00012443 Ry

     total magnetization       =     3.06 Bohr mag/cell
     absolute magnetization    =     3.22 Bohr mag/cell
[tb_dev] Currently allocated     4.69E-01 Mbytes, locked:    0 /   6
[tb_pin] Currently allocated     0.00E+00 Mbytes, locked:    0 /   0

     iteration # 79     ecut=    40.00 Ry     beta= 0.40
     Davidson diagonalization with overlap

---- Real-time Memory Report at c_bands before calling an iterative solver
          1010 MiB given to the printing process from OS
           819 MiB allocation reported by mallinfo(arena+hblkhd)
         59065 MiB available memory on the node where the printing process lives
     GPU memory used/free/total (MiB): 966 / 15314 / 16280
------------------
     ethr =  1.85E-07,  avg # of iterations =  8.1

     negative rho (up, down):  4.105E-04 1.462E-03

     total cpu time spent up to now is      302.8 secs

     total energy              =    -424.29766529 Ry
     estimated scf accuracy    <       0.00032768 Ry

     total magnetization       =     2.54 Bohr mag/cell
     absolute magnetization    =     2.73 Bohr mag/cell
[tb_dev] Currently allocated     4.69E-01 Mbytes, locked:    0 /   6
[tb_pin] Currently allocated     0.00E+00 Mbytes, locked:    0 /   0

     iteration # 80     ecut=    40.00 Ry     beta= 0.40
     Davidson diagonalization with overlap

---- Real-time Memory Report at c_bands before calling an iterative solver
          1010 MiB given to the printing process from OS
           819 MiB allocation reported by mallinfo(arena+hblkhd)
         59066 MiB available memory on the node where the printing process lives
     GPU memory used/free/total (MiB): 966 / 15314 / 16280
------------------
     c_bands:  1 eigenvalues not converged
     c_bands:  1 eigenvalues not converged
     c_bands:  1 eigenvalues not converged
     c_bands:  1 eigenvalues not converged
     c_bands:  1 eigenvalues not converged
     c_bands:  1 eigenvalues not converged
     c_bands:  1 eigenvalues not converged
     ethr =  1.85E-07,  avg # of iterations = 12.9

     negative rho (up, down):  1.654E-04 1.682E-03

     total cpu time spent up to now is      310.3 secs

     total energy              =    -424.25046229 Ry
     estimated scf accuracy    <       0.00578785 Ry

     total magnetization       =     1.08 Bohr mag/cell
     absolute magnetization    =     3.20 Bohr mag/cell

     End of self-consistent calculation

     convergence NOT achieved after  80 iterations: stopping

     Writing config to output data dir ./out/aiida.save/
 
     init_run     :     10.90s CPU      3.62s WALL (       1 calls)
     electrons    :    439.55s CPU    305.56s WALL (       1 calls)

     Called by init_run:
     wfcinit      :      1.18s CPU      1.94s WALL (       1 calls)
                                        1.94s GPU  (       1 calls)
     wfcinit:atom :      0.04s CPU      0.05s WALL (     144 calls)
                                        0.05s GPU  (     144 calls)
     wfcinit:wfcr :      0.83s CPU      1.40s WALL (     144 calls)
                                        1.40s GPU  (     144 calls)
     potinit      :      0.44s CPU      0.04s WALL (       1 calls)
     hinit0       :      6.97s CPU      1.11s WALL (       1 calls)

     Called by electrons:
     c_bands      :    372.82s CPU    271.22s WALL (      80 calls)
     sum_band     :     24.65s CPU     30.37s WALL (      80 calls)
     v_of_rho     :      7.32s CPU      0.66s WALL (      81 calls)
     v_h          :      1.10s CPU      0.10s WALL (      81 calls)
     v_xc         :      6.21s CPU      0.56s WALL (      81 calls)
     newd         :     25.15s CPU      2.58s WALL (      81 calls)
                                        2.58s GPU  (      81 calls)
     mix_rho      :      7.97s CPU      0.79s WALL (      80 calls)

     Called by c_bands:
     init_us_2    :     31.31s CPU     26.60s WALL (   23184 calls)
     init_us_2:gp :     30.81s CPU     26.22s WALL (   23184 calls)
     cegterg      :    335.50s CPU    247.24s WALL (   11520 calls)

     Called by sum_band:
     sum_band:wei :      0.27s CPU      0.28s WALL (      80 calls)
                                        0.28s GPU  (      80 calls)
     sum_band:loo :     21.29s CPU     26.74s WALL (      80 calls)
                                       26.74s GPU  (      80 calls)
     sum_band:buf :      2.24s CPU      2.78s WALL (   11520 calls)
                                        2.71s GPU  (   11520 calls)
     sum_band:ini :      9.95s CPU     12.88s WALL (   11520 calls)
                                       12.82s GPU  (   11520 calls)
     sum_band:cal :      0.34s CPU      0.77s WALL (   11520 calls)
                                        0.71s GPU  (   11520 calls)
     sum_band:bec :      1.95s CPU      2.46s WALL (   11520 calls)
                                        2.38s GPU  (   11520 calls)
     addusdens    :      2.66s CPU      2.89s WALL (      80 calls)
                                        2.89s GPU  (      80 calls)
     addusd:skk   :      0.01s CPU      0.02s WALL (     320 calls)
                                        0.01s GPU  (     320 calls)

     Called by *egterg:
     cdiaghg      :    168.83s CPU    128.58s WALL (   74038 calls)
                                      128.09s GPU  (   74038 calls)
     cegterg:over :      9.37s CPU      7.17s WALL (   62518 calls)
     cegterg:upda :     18.08s CPU     13.36s WALL (   62518 calls)
     cegterg:last :      3.58s CPU      2.68s WALL (   31256 calls)
     h_psi        :     98.30s CPU     70.64s WALL (   74182 calls)
                                       70.24s GPU  (   74182 calls)
     s_psi        :      8.26s CPU      8.32s WALL (   74182 calls)
                                        7.83s GPU  (   74182 calls)
     g_psi        :      0.63s CPU      1.22s WALL (   62518 calls)
                                        0.83s GPU  (   62518 calls)

     Called by h_psi:
     h_psi:calbec :      3.35s CPU      5.73s WALL (   74182 calls)
                                        5.28s GPU  (   74182 calls)
     vloc_psi     :     71.32s CPU     51.10s WALL (   74182 calls)
                                       50.67s GPU  (   74182 calls)
     add_vuspsi   :     10.78s CPU      9.37s WALL (   74182 calls)
                                        8.94s GPU  (   74182 calls)

     General routines
     calbec       :      2.77s CPU      2.11s WALL (   85702 calls)
     fft          :      3.13s CPU      0.34s WALL (    2023 calls)
                                        0.23s GPU  (    1861 calls)
     ffts         :      0.50s CPU      0.06s WALL (     322 calls)
                                        0.00s GPU  (     160 calls)
     fftw         :      6.27s CPU     26.44s WALL (  224818 calls)
                                       25.20s GPU  (  224818 calls)
     interpolate  :      2.31s CPU      0.21s WALL (     162 calls)
     davcio       :      0.78s CPU      0.07s WALL (     162 calls)
 
     Parallel routines
 
     PWSCF        :   7m34.62s CPU   5m10.42s WALL

 
   This run was terminated on:  18: 3:52  23Oct2023            

=------------------------------------------------------------------------------=
   JOB DONE.
=------------------------------------------------------------------------------=
