
     Program PWSCF v.7.2 starts on 23Oct2023 at 17:51:33 

     This program is part of the open-source Quantum ESPRESSO suite
     for quantum simulation of materials; please cite
         "P. Giannozzi et al., J. Phys.:Condens. Matter 21 395502 (2009);
         "P. Giannozzi et al., J. Phys.:Condens. Matter 29 465901 (2017);
         "P. Giannozzi et al., J. Chem. Phys. 152 154105 (2020);
          URL http://www.quantum-espresso.org", 
     in publications or presentations arising from this work. More details at
     http://www.quantum-espresso.org/quote

     Parallel version (MPI & OpenMP), running on      12 processor cores
     Number of MPI processes:                 1
     Threads/MPI process:                    12

     MPI processes distributed on     1 nodes
     60374 MiB available memory on the printing compute node when the environment starts
 
     Reading input from aiida.in

     Current dimensions of program PWSCF are:
     Max number of different atomic species (ntypx) = 10
     Max number of k-points (npk) =  40000
     Max angular momentum in pseudopotentials (lmaxx) =  4
     file Mg.pbesol-n-kjpaw_psl.0.3.0.UPF: wavefunction(s)  3S renormalized
     Message from routine setup:
     using ibrav=0 with symmetry is DISCOURAGED, use correct ibrav instead
 
     Subspace diagonalization in iterative solution of the eigenvalue problem:
     a serial algorithm will be used

 
     G-vector sticks info
     --------------------
     sticks:   dense  smooth     PW     G-vecs:    dense   smooth      PW
     Sum        6391    3205    877               337669   119485   17261
 
     Using Slab Decomposition
 


     bravais-lattice index     =            0
     lattice parameter (alat)  =      13.9061  a.u.
     unit-cell volume          =    1901.5358 (a.u.)^3
     number of atoms/cell      =            9
     number of atomic types    =            3
     number of electrons       =        46.00
     number of Kohn-Sham states=           28
     kinetic-energy cutoff     =      60.0000  Ry
     charge density cutoff     =     480.0000  Ry
     scf convergence threshold =      1.8E-09
     mixing beta               =       0.2000
     number of iterations used =            8  plain     mixing
     Exchange-correlation= PBESOL
                           (   1   4  10   8   0   0   0)

     GPU acceleration is ACTIVE.


     GPU used by master process:

        Device Number: 0
        Device name: Tesla P100-PCIE-16GB
        Compute capability : 60
        Ratio of single to double precision performance  : 2
        Memory Clock Rate (KHz): 715000
        Memory Bus Width (bits): 4096
        Peak Memory Bandwidth (GB/s): 732.16

     celldm(1)=  13.906137  celldm(2)=   0.000000  celldm(3)=   0.000000
     celldm(4)=   0.000000  celldm(5)=   0.000000  celldm(6)=   0.000000

     crystal axes: (cart. coord. in units of alat)
               a(1) = (   0.000000   0.707107   0.707107 )  
               a(2) = (   0.707107   0.000000   0.707107 )  
               a(3) = (   0.707107   0.707107   0.000000 )  

     reciprocal axes: (cart. coord. in units 2 pi/alat)
               b(1) = ( -0.707107  0.707107  0.707107 )  
               b(2) = (  0.707107 -0.707107  0.707107 )  
               b(3) = (  0.707107  0.707107 -0.707107 )  


     PseudoPot. # 1 for Br read from file:
     ./pseudo/br_pbesol_v1.4.uspp.F.UPF
     MD5 check sum: 7bf6084e715f6bfd1944787c04c43e72
     Pseudo is Ultrasoft + core correction, Zval =  7.0
     Generated by new atomic code, or converted to UPF format
     Using radial grid of  879 points,  6 beta functions with: 
                l(1) =   0
                l(2) =   0
                l(3) =   1
                l(4) =   1
                l(5) =   2
                l(6) =   2
     Q(r) pseudized with  8 coefficients,  rinner =    1.200   1.200   1.200
                                                       1.200   1.200

     PseudoPot. # 2 for Mg read from file:
     ./pseudo/Mg.pbesol-n-kjpaw_psl.0.3.0.UPF
     MD5 check sum: a6c8d2ff726a5f7005dea00130d82930
     Pseudo is Projector augmented-wave + core cor, Zval =  2.0
     Generated using "atomic" code by A. Dal Corso  v.6.1 svn rev. 13369
     Shape of augmentation charge: PSQ
     Using radial grid of 1129 points,  4 beta functions with: 
                l(1) =   0
                l(2) =   0
                l(3) =   1
                l(4) =   1
     Q(r) pseudized with 0 coefficients 


     PseudoPot. # 3 for N  read from file:
     ./pseudo/N.pbesol-theos.UPF
     MD5 check sum: 1b64827339d390a5a22afef3ff345c9d
     Pseudo is Ultrasoft + core correction, Zval =  5.0
     Generated using "atomic" code by A. Dal Corso  v.5.1
     Using radial grid of 1085 points,  4 beta functions with: 
                l(1) =   0
                l(2) =   0
                l(3) =   1
                l(4) =   1
     Q(r) pseudized with 0 coefficients 


     atomic species   valence    mass     pseudopotential
        Br             7.00    79.90400     Br( 1.00)
        Mg             2.00    24.30500     Mg( 1.00)
        N              5.00    14.00670     N ( 1.00)

     Starting magnetic structure 
     atomic species   magnetization
        Br           0.100
        Mg           0.100
        N            0.100

     48 Sym. Ops., with inversion, found


                                    s                        frac. trans.

      isym =  1     identity                                     

 cryst.   s( 1) = (     1          0          0      )
                  (     0          1          0      )
                  (     0          0          1      )

 cart.    s( 1) = (  1.0000000 -0.0000000  0.0000000 )
                  ( -0.0000000  1.0000000  0.0000000 )
                  ( -0.0000000  0.0000000  1.0000000 )


      isym =  2     180 deg rotation - cart. axis [0,0,1]        

 cryst.   s( 2) = (     0          1         -1      )
                  (     1          0         -1      )
                  (     0          0         -1      )

 cart.    s( 2) = ( -1.0000000  0.0000000  0.0000000 )
                  (  0.0000000 -1.0000000  0.0000000 )
                  (  0.0000000 -0.0000000  1.0000000 )


      isym =  3     180 deg rotation - cart. axis [0,1,0]        

 cryst.   s( 3) = (     0         -1          1      )
                  (     0         -1          0      )
                  (     1         -1          0      )

 cart.    s( 3) = ( -1.0000000 -0.0000000 -0.0000000 )
                  (  0.0000000  1.0000000 -0.0000000 )
                  (  0.0000000  0.0000000 -1.0000000 )


      isym =  4     180 deg rotation - cart. axis [1,0,0]        

 cryst.   s( 4) = (    -1          0          0      )
                  (    -1          0          1      )
                  (    -1          1          0      )

 cart.    s( 4) = (  1.0000000  0.0000000 -0.0000000 )
                  ( -0.0000000 -1.0000000 -0.0000000 )
                  ( -0.0000000 -0.0000000 -1.0000000 )


      isym =  5     180 deg rotation - cart. axis [1,1,0]        

 cryst.   s( 5) = (    -1          0          1      )
                  (     0         -1          1      )
                  (     0          0          1      )

 cart.    s( 5) = ( -0.0000000  1.0000000 -0.0000000 )
                  (  1.0000000 -0.0000000 -0.0000000 )
                  (  0.0000000 -0.0000000 -1.0000000 )


      isym =  6     180 deg rotation - cart. axis [1,-1,0]       

 cryst.   s( 6) = (     0         -1          0      )
                  (    -1          0          0      )
                  (     0          0         -1      )

 cart.    s( 6) = (  0.0000000 -1.0000000 -0.0000000 )
                  ( -1.0000000  0.0000000 -0.0000000 )
                  ( -0.0000000  0.0000000 -1.0000000 )


      isym =  7      90 deg rotation - cart. axis [0,0,-1]       

 cryst.   s( 7) = (     0          1          0      )
                  (     0          1         -1      )
                  (    -1          1          0      )

 cart.    s( 7) = (  0.0000000  1.0000000  0.0000000 )
                  ( -1.0000000 -0.0000000  0.0000000 )
                  ( -0.0000000 -0.0000000  1.0000000 )


      isym =  8      90 deg rotation - cart. axis [0,0,1]        

 cryst.   s( 8) = (     1          0         -1      )
                  (     1          0          0      )
                  (     1         -1          0      )

 cart.    s( 8) = ( -0.0000000 -1.0000000  0.0000000 )
                  (  1.0000000  0.0000000  0.0000000 )
                  (  0.0000000  0.0000000  1.0000000 )


      isym =  9     180 deg rotation - cart. axis [1,0,1]        

 cryst.   s( 9) = (    -1          1          0      )
                  (     0          1          0      )
                  (     0          1         -1      )

 cart.    s( 9) = (  0.0000000  0.0000000  1.0000000 )
                  (  0.0000000 -1.0000000 -0.0000000 )
                  (  1.0000000 -0.0000000 -0.0000000 )


      isym = 10     180 deg rotation - cart. axis [-1,0,1]       

 cryst.   s(10) = (     0          0         -1      )
                  (     0         -1          0      )
                  (    -1          0          0      )

 cart.    s(10) = ( -0.0000000  0.0000000 -1.0000000 )
                  ( -0.0000000 -1.0000000  0.0000000 )
                  ( -1.0000000 -0.0000000  0.0000000 )


      isym = 11      90 deg rotation - cart. axis [0,1,0]        

 cryst.   s(11) = (     0          0          1      )
                  (    -1          0          1      )
                  (     0         -1          1      )

 cart.    s(11) = ( -0.0000000 -0.0000000  1.0000000 )
                  ( -0.0000000  1.0000000 -0.0000000 )
                  ( -1.0000000  0.0000000 -0.0000000 )


      isym = 12      90 deg rotation - cart. axis [0,-1,0]       

 cryst.   s(12) = (     1         -1          0      )
                  (     1          0         -1      )
                  (     1          0          0      )

 cart.    s(12) = (  0.0000000 -0.0000000 -1.0000000 )
                  (  0.0000000  1.0000000  0.0000000 )
                  (  1.0000000  0.0000000  0.0000000 )


      isym = 13     180 deg rotation - cart. axis [0,1,1]        

 cryst.   s(13) = (     1          0          0      )
                  (     1         -1          0      )
                  (     1          0         -1      )

 cart.    s(13) = ( -1.0000000  0.0000000 -0.0000000 )
                  (  0.0000000  0.0000000  1.0000000 )
                  (  0.0000000  1.0000000  0.0000000 )


      isym = 14     180 deg rotation - cart. axis [0,1,-1]       

 cryst.   s(14) = (    -1          0          0      )
                  (     0          0         -1      )
                  (     0         -1          0      )

 cart.    s(14) = ( -1.0000000 -0.0000000  0.0000000 )
                  (  0.0000000 -0.0000000 -1.0000000 )
                  (  0.0000000 -1.0000000 -0.0000000 )


      isym = 15      90 deg rotation - cart. axis [-1,0,0]       

 cryst.   s(15) = (     0         -1          1      )
                  (     0          0          1      )
                  (    -1          0          1      )

 cart.    s(15) = (  1.0000000 -0.0000000 -0.0000000 )
                  ( -0.0000000 -0.0000000  1.0000000 )
                  ( -0.0000000 -1.0000000  0.0000000 )


      isym = 16      90 deg rotation - cart. axis [1,0,0]        

 cryst.   s(16) = (     0          1         -1      )
                  (    -1          1          0      )
                  (     0          1          0      )

 cart.    s(16) = (  1.0000000  0.0000000  0.0000000 )
                  ( -0.0000000  0.0000000 -1.0000000 )
                  ( -0.0000000  1.0000000 -0.0000000 )


      isym = 17     120 deg rotation - cart. axis [-1,-1,-1]     

 cryst.   s(17) = (     0          0          1      )
                  (     1          0          0      )
                  (     0          1          0      )

 cart.    s(17) = (  0.0000000  1.0000000 -0.0000000 )
                  (  0.0000000 -0.0000000  1.0000000 )
                  (  1.0000000 -0.0000000  0.0000000 )


      isym = 18     120 deg rotation - cart. axis [-1,1,1]       

 cryst.   s(18) = (     1         -1          0      )
                  (     0         -1          1      )
                  (     0         -1          0      )

 cart.    s(18) = ( -0.0000000 -1.0000000 -0.0000000 )
                  ( -0.0000000  0.0000000  1.0000000 )
                  ( -1.0000000  0.0000000  0.0000000 )


      isym = 19     120 deg rotation - cart. axis [1,1,-1]       

 cryst.   s(19) = (    -1          1          0      )
                  (    -1          0          0      )
                  (    -1          0          1      )

 cart.    s(19) = ( -0.0000000  1.0000000  0.0000000 )
                  ( -0.0000000 -0.0000000 -1.0000000 )
                  ( -1.0000000 -0.0000000 -0.0000000 )


      isym = 20     120 deg rotation - cart. axis [1,-1,1]       

 cryst.   s(20) = (     0          0         -1      )
                  (     0          1         -1      )
                  (     1          0         -1      )

 cart.    s(20) = (  0.0000000 -1.0000000  0.0000000 )
                  (  0.0000000  0.0000000 -1.0000000 )
                  (  1.0000000  0.0000000 -0.0000000 )


      isym = 21     120 deg rotation - cart. axis [1,1,1]        

 cryst.   s(21) = (     0          1          0      )
                  (     0          0          1      )
                  (     1          0          0      )

 cart.    s(21) = ( -0.0000000  0.0000000  1.0000000 )
                  (  1.0000000  0.0000000 -0.0000000 )
                  (  0.0000000  1.0000000 -0.0000000 )


      isym = 22     120 deg rotation - cart. axis [-1,1,-1]      

 cryst.   s(22) = (    -1          0          1      )
                  (    -1          1          0      )
                  (    -1          0          0      )

 cart.    s(22) = (  0.0000000 -0.0000000  1.0000000 )
                  ( -1.0000000 -0.0000000 -0.0000000 )
                  ( -0.0000000 -1.0000000 -0.0000000 )


      isym = 23     120 deg rotation - cart. axis [1,-1,-1]      

 cryst.   s(23) = (     1          0         -1      )
                  (     0          0         -1      )
                  (     0          1         -1      )

 cart.    s(23) = (  0.0000000  0.0000000 -1.0000000 )
                  ( -1.0000000  0.0000000  0.0000000 )
                  ( -0.0000000  1.0000000  0.0000000 )


      isym = 24     120 deg rotation - cart. axis [-1,-1,1]      

 cryst.   s(24) = (     0         -1          0      )
                  (     1         -1          0      )
                  (     0         -1          1      )

 cart.    s(24) = ( -0.0000000 -0.0000000 -1.0000000 )
                  (  1.0000000 -0.0000000  0.0000000 )
                  (  0.0000000 -1.0000000  0.0000000 )


      isym = 25     inversion                                    

 cryst.   s(25) = (    -1          0          0      )
                  (     0         -1          0      )
                  (     0          0         -1      )

 cart.    s(25) = ( -1.0000000  0.0000000 -0.0000000 )
                  (  0.0000000 -1.0000000 -0.0000000 )
                  (  0.0000000 -0.0000000 -1.0000000 )


      isym = 26     inv. 180 deg rotation - cart. axis [0,0,1]   

 cryst.   s(26) = (     0         -1          1      )
                  (    -1          0          1      )
                  (     0          0          1      )

 cart.    s(26) = (  1.0000000 -0.0000000 -0.0000000 )
                  ( -0.0000000  1.0000000 -0.0000000 )
                  ( -0.0000000  0.0000000 -1.0000000 )


      isym = 27     inv. 180 deg rotation - cart. axis [0,1,0]   

 cryst.   s(27) = (     0          1         -1      )
                  (     0          1          0      )
                  (    -1          1          0      )

 cart.    s(27) = (  1.0000000  0.0000000  0.0000000 )
                  ( -0.0000000 -1.0000000  0.0000000 )
                  ( -0.0000000 -0.0000000  1.0000000 )


      isym = 28     inv. 180 deg rotation - cart. axis [1,0,0]   

 cryst.   s(28) = (     1          0          0      )
                  (     1          0         -1      )
                  (     1         -1          0      )

 cart.    s(28) = ( -1.0000000 -0.0000000  0.0000000 )
                  (  0.0000000  1.0000000  0.0000000 )
                  (  0.0000000  0.0000000  1.0000000 )


      isym = 29     inv. 180 deg rotation - cart. axis [1,1,0]   

 cryst.   s(29) = (     1          0         -1      )
                  (     0          1         -1      )
                  (     0          0         -1      )

 cart.    s(29) = (  0.0000000 -1.0000000  0.0000000 )
                  ( -1.0000000  0.0000000  0.0000000 )
                  ( -0.0000000  0.0000000  1.0000000 )


      isym = 30     inv. 180 deg rotation - cart. axis [1,-1,0]  

 cryst.   s(30) = (     0          1          0      )
                  (     1          0          0      )
                  (     0          0          1      )

 cart.    s(30) = ( -0.0000000  1.0000000  0.0000000 )
                  (  1.0000000 -0.0000000  0.0000000 )
                  (  0.0000000 -0.0000000  1.0000000 )


      isym = 31     inv.  90 deg rotation - cart. axis [0,0,-1]  

 cryst.   s(31) = (     0         -1          0      )
                  (     0         -1          1      )
                  (     1         -1          0      )

 cart.    s(31) = ( -0.0000000 -1.0000000 -0.0000000 )
                  (  1.0000000  0.0000000 -0.0000000 )
                  (  0.0000000  0.0000000 -1.0000000 )


      isym = 32     inv.  90 deg rotation - cart. axis [0,0,1]   

 cryst.   s(32) = (    -1          0          1      )
                  (    -1          0          0      )
                  (    -1          1          0      )

 cart.    s(32) = (  0.0000000  1.0000000 -0.0000000 )
                  ( -1.0000000 -0.0000000 -0.0000000 )
                  ( -0.0000000 -0.0000000 -1.0000000 )


      isym = 33     inv. 180 deg rotation - cart. axis [1,0,1]   

 cryst.   s(33) = (     1         -1          0      )
                  (     0         -1          0      )
                  (     0         -1          1      )

 cart.    s(33) = ( -0.0000000 -0.0000000 -1.0000000 )
                  ( -0.0000000  1.0000000  0.0000000 )
                  ( -1.0000000  0.0000000  0.0000000 )


      isym = 34     inv. 180 deg rotation - cart. axis [-1,0,1]  

 cryst.   s(34) = (     0          0          1      )
                  (     0          1          0      )
                  (     1          0          0      )

 cart.    s(34) = (  0.0000000 -0.0000000  1.0000000 )
                  (  0.0000000  1.0000000 -0.0000000 )
                  (  1.0000000  0.0000000 -0.0000000 )


      isym = 35     inv.  90 deg rotation - cart. axis [0,1,0]   

 cryst.   s(35) = (     0          0         -1      )
                  (     1          0         -1      )
                  (     0          1         -1      )

 cart.    s(35) = (  0.0000000  0.0000000 -1.0000000 )
                  (  0.0000000 -1.0000000  0.0000000 )
                  (  1.0000000 -0.0000000  0.0000000 )


      isym = 36     inv.  90 deg rotation - cart. axis [0,-1,0]  

 cryst.   s(36) = (    -1          1          0      )
                  (    -1          0          1      )
                  (    -1          0          0      )

 cart.    s(36) = ( -0.0000000  0.0000000  1.0000000 )
                  ( -0.0000000 -1.0000000 -0.0000000 )
                  ( -1.0000000 -0.0000000 -0.0000000 )


      isym = 37     inv. 180 deg rotation - cart. axis [0,1,1]   

 cryst.   s(37) = (    -1          0          0      )
                  (    -1          1          0      )
                  (    -1          0          1      )

 cart.    s(37) = (  1.0000000 -0.0000000  0.0000000 )
                  ( -0.0000000 -0.0000000 -1.0000000 )
                  ( -0.0000000 -1.0000000 -0.0000000 )


      isym = 38     inv. 180 deg rotation - cart. axis [0,1,-1]  

 cryst.   s(38) = (     1          0          0      )
                  (     0          0          1      )
                  (     0          1          0      )

 cart.    s(38) = (  1.0000000  0.0000000 -0.0000000 )
                  ( -0.0000000  0.0000000  1.0000000 )
                  ( -0.0000000  1.0000000  0.0000000 )


      isym = 39     inv.  90 deg rotation - cart. axis [-1,0,0]  

 cryst.   s(39) = (     0          1         -1      )
                  (     0          0         -1      )
                  (     1          0         -1      )

 cart.    s(39) = ( -1.0000000  0.0000000  0.0000000 )
                  (  0.0000000  0.0000000 -1.0000000 )
                  (  0.0000000  1.0000000 -0.0000000 )


      isym = 40     inv.  90 deg rotation - cart. axis [1,0,0]   

 cryst.   s(40) = (     0         -1          1      )
                  (     1         -1          0      )
                  (     0         -1          0      )

 cart.    s(40) = ( -1.0000000 -0.0000000 -0.0000000 )
                  (  0.0000000 -0.0000000  1.0000000 )
                  (  0.0000000 -1.0000000  0.0000000 )


      isym = 41     inv. 120 deg rotation - cart. axis [-1,-1,-1]

 cryst.   s(41) = (     0          0         -1      )
                  (    -1          0          0      )
                  (     0         -1          0      )

 cart.    s(41) = ( -0.0000000 -1.0000000  0.0000000 )
                  ( -0.0000000  0.0000000 -1.0000000 )
                  ( -1.0000000  0.0000000 -0.0000000 )


      isym = 42     inv. 120 deg rotation - cart. axis [-1,1,1]  

 cryst.   s(42) = (    -1          1          0      )
                  (     0          1         -1      )
                  (     0          1          0      )

 cart.    s(42) = (  0.0000000  1.0000000  0.0000000 )
                  (  0.0000000 -0.0000000 -1.0000000 )
                  (  1.0000000 -0.0000000 -0.0000000 )


      isym = 43     inv. 120 deg rotation - cart. axis [1,1,-1]  

 cryst.   s(43) = (     1         -1          0      )
                  (     1          0          0      )
                  (     1          0         -1      )

 cart.    s(43) = (  0.0000000 -1.0000000 -0.0000000 )
                  (  0.0000000  0.0000000  1.0000000 )
                  (  1.0000000  0.0000000  0.0000000 )


      isym = 44     inv. 120 deg rotation - cart. axis [1,-1,1]  

 cryst.   s(44) = (     0          0          1      )
                  (     0         -1          1      )
                  (    -1          0          1      )

 cart.    s(44) = ( -0.0000000  1.0000000 -0.0000000 )
                  ( -0.0000000 -0.0000000  1.0000000 )
                  ( -1.0000000 -0.0000000  0.0000000 )


      isym = 45     inv. 120 deg rotation - cart. axis [1,1,1]   

 cryst.   s(45) = (     0         -1          0      )
                  (     0          0         -1      )
                  (    -1          0          0      )

 cart.    s(45) = (  0.0000000 -0.0000000 -1.0000000 )
                  ( -1.0000000 -0.0000000  0.0000000 )
                  ( -0.0000000 -1.0000000  0.0000000 )


      isym = 46     inv. 120 deg rotation - cart. axis [-1,1,-1] 

 cryst.   s(46) = (     1          0         -1      )
                  (     1         -1          0      )
                  (     1          0          0      )

 cart.    s(46) = ( -0.0000000  0.0000000 -1.0000000 )
                  (  1.0000000  0.0000000  0.0000000 )
                  (  0.0000000  1.0000000  0.0000000 )


      isym = 47     inv. 120 deg rotation - cart. axis [1,-1,-1] 

 cryst.   s(47) = (    -1          0          1      )
                  (     0          0          1      )
                  (     0         -1          1      )

 cart.    s(47) = ( -0.0000000 -0.0000000  1.0000000 )
                  (  1.0000000 -0.0000000 -0.0000000 )
                  (  0.0000000 -1.0000000 -0.0000000 )


      isym = 48     inv. 120 deg rotation - cart. axis [-1,-1,1] 

 cryst.   s(48) = (     0          1          0      )
                  (    -1          1          0      )
                  (     0          1         -1      )

 cart.    s(48) = (  0.0000000  0.0000000  1.0000000 )
                  ( -1.0000000  0.0000000 -0.0000000 )
                  ( -0.0000000  1.0000000 -0.0000000 )


   Cartesian axes

     site n.     atom                  positions (alat units)
         1           Mg  tau(   1) = (   0.0000000   0.0000000   0.0000000  )
         2           Br  tau(   2) = (   0.3535534   0.3535534   1.0606602  )
         3           Br  tau(   3) = (   0.3535534   1.0606602   1.0606602  )
         4           N   tau(   4) = (   0.2944393  -0.0000000  -0.0000000  )
         5           N   tau(   5) = (   0.0000000   0.0000000   1.1197743  )
         6           N   tau(   6) = (   0.7071068   1.0015460  -0.0000000  )
         7           N   tau(   7) = (   0.7071068  -0.0000000   1.0015460  )
         8           N   tau(   8) = (   0.7071068   0.4126675   0.0000000  )
         9           N   tau(   9) = (   1.1197743  -0.0000000  -0.0000000  )

   Crystallographic axes

     site n.     atom                  positions (cryst. coord.)
         1           Mg  tau(   1) = (  0.0000000  0.0000000  0.0000000  )
         2           Br  tau(   2) = (  0.7500000  0.7500000 -0.2500000  )
         3           Br  tau(   3) = (  1.2500000  0.2500000  0.2500000  )
         4           N   tau(   4) = ( -0.2082000  0.2082000  0.2082000  )
         5           N   tau(   5) = (  0.7918000  0.7918000 -0.7918000  )
         6           N   tau(   6) = (  0.2082000 -0.2082000  1.2082000  )
         7           N   tau(   7) = (  0.2082000  1.2082000 -0.2082000  )
         8           N   tau(   8) = ( -0.2082000  0.2082000  0.7918000  )
         9           N   tau(   9) = ( -0.7918000  0.7918000  0.7918000  )

     number of k points=    20  Marzari-Vanderbilt smearing, width (Ry)=  0.0100
                       cart. coord. in units 2pi/alat
        k(    1) = (   0.0000000   0.0000000   0.0000000), wk =   0.0029155
        k(    2) = (   0.1010153   0.1010153  -0.1010153), wk =   0.0233236
        k(    3) = (   0.2020305   0.2020305  -0.2020305), wk =   0.0233236
        k(    4) = (   0.3030458   0.3030458  -0.3030458), wk =   0.0233236
        k(    5) = (   0.2020305  -0.0000000   0.0000000), wk =   0.0174927
        k(    6) = (   0.3030458   0.1010153  -0.1010153), wk =   0.0699708
        k(    7) = (   0.4040610   0.2020305  -0.2020305), wk =   0.0699708
        k(    8) = (  -0.2020305  -0.4040610   0.4040610), wk =   0.0699708
        k(    9) = (  -0.1010153  -0.3030458   0.3030458), wk =   0.0699708
        k(   10) = (  -0.0000000  -0.2020305   0.2020305), wk =   0.0349854
        k(   11) = (   0.4040610  -0.0000000   0.0000000), wk =   0.0174927
        k(   12) = (   0.5050763   0.1010153  -0.1010153), wk =   0.0699708
        k(   13) = (  -0.1010153  -0.5050763   0.5050763), wk =   0.0699708
        k(   14) = (   0.0000000  -0.4040610   0.4040610), wk =   0.0349854
        k(   15) = (   0.6060915  -0.0000000   0.0000000), wk =   0.0174927
        k(   16) = (  -0.0000000  -0.6060915   0.6060915), wk =   0.0349854
        k(   17) = (   0.4040610   0.2020305   0.0000000), wk =   0.0699708
        k(   18) = (  -0.2020305  -0.4040610   0.6060915), wk =   0.1399417
        k(   19) = (  -0.1010153  -0.5050763   0.7071068), wk =   0.0699708
        k(   20) = (  -0.0000000  -0.4040610   0.6060915), wk =   0.0699708

                       cryst. coord.
        k(    1) = (   0.0000000   0.0000000   0.0000000), wk =   0.0029155
        k(    2) = (   0.0000000   0.0000000   0.1428571), wk =   0.0233236
        k(    3) = (   0.0000000   0.0000000   0.2857143), wk =   0.0233236
        k(    4) = (  -0.0000000  -0.0000000   0.4285714), wk =   0.0233236
        k(    5) = (  -0.0000000   0.1428571   0.1428571), wk =   0.0174927
        k(    6) = (  -0.0000000   0.1428571   0.2857143), wk =   0.0699708
        k(    7) = (  -0.0000000   0.1428571   0.4285714), wk =   0.0699708
        k(    8) = (  -0.0000000   0.1428571  -0.4285714), wk =   0.0699708
        k(    9) = (   0.0000000   0.1428571  -0.2857143), wk =   0.0699708
        k(   10) = (  -0.0000000   0.1428571  -0.1428571), wk =   0.0349854
        k(   11) = (  -0.0000000   0.2857143   0.2857143), wk =   0.0174927
        k(   12) = (  -0.0000000   0.2857143   0.4285714), wk =   0.0699708
        k(   13) = (  -0.0000000   0.2857143  -0.4285714), wk =   0.0699708
        k(   14) = (  -0.0000000   0.2857143  -0.2857143), wk =   0.0349854
        k(   15) = (   0.0000000   0.4285714   0.4285714), wk =   0.0174927
        k(   16) = (   0.0000000   0.4285714  -0.4285714), wk =   0.0349854
        k(   17) = (   0.1428571   0.2857143   0.4285714), wk =   0.0699708
        k(   18) = (   0.1428571   0.2857143  -0.4285714), wk =   0.1399417
        k(   19) = (   0.1428571   0.4285714  -0.4285714), wk =   0.0699708
        k(   20) = (   0.1428571   0.4285714  -0.2857143), wk =   0.0699708

     Dense  grid:   337669 G-vectors     FFT dimensions: ( 100, 100, 100)

     Smooth grid:   119485 G-vectors     FFT dimensions: (  72,  72,  72)

     Dynamical RAM for                 wfc:       6.38 MB

     Dynamical RAM for     wfc (w. buffer):     261.43 MB

     Dynamical RAM for           str. fact:      15.46 MB

     Dynamical RAM for           local pot:       0.00 MB

     Dynamical RAM for          nlocal pot:      20.95 MB

     Dynamical RAM for                qrad:       5.27 MB

     Dynamical RAM for          rho,v,vnew:      76.69 MB

     Dynamical RAM for               rhoin:      25.56 MB

     Dynamical RAM for            rho*nmix:     164.88 MB

     Dynamical RAM for           G-vectors:      20.23 MB

     Dynamical RAM for          h,s,v(r/c):       0.14 MB

     Dynamical RAM for          <psi|beta>:       0.04 MB

     Dynamical RAM for                 psi:      12.75 MB

     Dynamical RAM for                hpsi:      12.75 MB

     Dynamical RAM for                spsi:      12.75 MB

     Dynamical RAM for      wfcinit/wfcrot:      12.77 MB

     Dynamical RAM for           addusdens:     994.42 MB

     Dynamical RAM for          addusforce:    1045.99 MB

     Dynamical RAM for         addusstress:    1043.37 MB

     Estimated static dynamical RAM per process >     491.98 MB

     Estimated max dynamical RAM per process >       1.66 GB

     Atomic positions and unit cell read from directory:
     ./out/aiida.save/
 
     Generating pointlists ...
     new r_m :   0.2077 (alat units)  2.8881 (a.u.) for type    1
     new r_m :   0.1215 (alat units)  1.6890 (a.u.) for type    2
     new r_m :   0.1215 (alat units)  1.6890 (a.u.) for type    3

     The initial density is read from file :
     ./out/aiida.save/charge-density

     Starting wfcs from file
     Checking if some PAW data can be deallocated... 

     total cpu time spent up to now is        4.0 secs

     per-process dynamical memory:   601.0 Mb

     Self-consistent Calculation
[tb_dev] Currently allocated     6.87E-05 Mbytes, locked:    0 /   2
[tb_pin] Currently allocated     0.00E+00 Mbytes, locked:    0 /   0

     iteration #  1     ecut=    60.00 Ry     beta= 0.20
     Davidson diagonalization with overlap

---- Real-time Memory Report at c_bands before calling an iterative solver
           760 MiB given to the printing process from OS
           610 MiB allocation reported by mallinfo(arena+hblkhd)
         58785 MiB available memory on the node where the printing process lives
     GPU memory used/free/total (MiB): 970 / 15310 / 16280
------------------
     ethr =  1.00E-05,  avg # of iterations =  1.0
     Minimization algorithm failed to find Fermi energy: reverting to bisection
     Possible cause: smearing is larger than the electronic band-gap.

     Threshold (ethr) on eigenvalues was too large:
     Diagonalizing with lowered threshold

     Davidson diagonalization with overlap

---- Real-time Memory Report at c_bands before calling an iterative solver
          1373 MiB given to the printing process from OS
          1191 MiB allocation reported by mallinfo(arena+hblkhd)
         57521 MiB available memory on the node where the printing process lives
     GPU memory used/free/total (MiB): 2560 / 13720 / 16280
------------------
     ethr =  2.79E-09,  avg # of iterations =  1.4
     Minimization algorithm failed to find Fermi energy: reverting to bisection
     Possible cause: smearing is larger than the electronic band-gap.

     total cpu time spent up to now is        8.9 secs

     total energy              =    -232.14079634 Ry
     estimated scf accuracy    <       0.00000109 Ry

     total magnetization       =    10.00 Bohr mag/cell
     absolute magnetization    =    13.43 Bohr mag/cell
[tb_dev] Currently allocated     3.89E+00 Mbytes, locked:    0 /   6
[tb_pin] Currently allocated     0.00E+00 Mbytes, locked:    0 /   0

     iteration #  2     ecut=    60.00 Ry     beta= 0.20
     Davidson diagonalization with overlap

---- Real-time Memory Report at c_bands before calling an iterative solver
          1463 MiB given to the printing process from OS
          1218 MiB allocation reported by mallinfo(arena+hblkhd)
         57463 MiB available memory on the node where the printing process lives
     GPU memory used/free/total (MiB): 2598 / 13682 / 16280
------------------
     c_bands:  2 eigenvalues not converged
     c_bands:  2 eigenvalues not converged
     c_bands:  5 eigenvalues not converged
     c_bands:  1 eigenvalues not converged
     ethr =  2.37E-09,  avg # of iterations =  9.6
     Minimization algorithm failed to find Fermi energy: reverting to bisection
     Possible cause: smearing is larger than the electronic band-gap.

     total cpu time spent up to now is       12.6 secs

     total energy              =    -232.14079779 Ry
     estimated scf accuracy    <       0.00001235 Ry

     total magnetization       =    10.00 Bohr mag/cell
     absolute magnetization    =    13.42 Bohr mag/cell
[tb_dev] Currently allocated     3.89E+00 Mbytes, locked:    0 /   6
[tb_pin] Currently allocated     0.00E+00 Mbytes, locked:    0 /   0

     iteration #  3     ecut=    60.00 Ry     beta= 0.20
     Davidson diagonalization with overlap

---- Real-time Memory Report at c_bands before calling an iterative solver
          1499 MiB given to the printing process from OS
          1230 MiB allocation reported by mallinfo(arena+hblkhd)
         57453 MiB available memory on the node where the printing process lives
     GPU memory used/free/total (MiB): 3192 / 13088 / 16280
------------------
     ethr =  2.37E-09,  avg # of iterations =  1.4
     Minimization algorithm failed to find Fermi energy: reverting to bisection
     Possible cause: smearing is larger than the electronic band-gap.

     total cpu time spent up to now is       14.6 secs

     total energy              =    -232.14079744 Ry
     estimated scf accuracy    <       0.00001039 Ry

     total magnetization       =    10.00 Bohr mag/cell
     absolute magnetization    =    13.42 Bohr mag/cell
[tb_dev] Currently allocated     3.89E+00 Mbytes, locked:    0 /   6
[tb_pin] Currently allocated     0.00E+00 Mbytes, locked:    0 /   0

     iteration #  4     ecut=    60.00 Ry     beta= 0.20
     Davidson diagonalization with overlap

---- Real-time Memory Report at c_bands before calling an iterative solver
          1532 MiB given to the printing process from OS
          1243 MiB allocation reported by mallinfo(arena+hblkhd)
         57440 MiB available memory on the node where the printing process lives
     GPU memory used/free/total (MiB): 3192 / 13088 / 16280
------------------
     ethr =  2.37E-09,  avg # of iterations =  1.3
     Minimization algorithm failed to find Fermi energy: reverting to bisection
     Possible cause: smearing is larger than the electronic band-gap.

     total cpu time spent up to now is       16.5 secs

     total energy              =    -232.14079736 Ry
     estimated scf accuracy    <       0.00000924 Ry

     total magnetization       =    10.00 Bohr mag/cell
     absolute magnetization    =    13.42 Bohr mag/cell
[tb_dev] Currently allocated     3.89E+00 Mbytes, locked:    0 /   6
[tb_pin] Currently allocated     0.00E+00 Mbytes, locked:    0 /   0

     iteration #  5     ecut=    60.00 Ry     beta= 0.20
     Davidson diagonalization with overlap

---- Real-time Memory Report at c_bands before calling an iterative solver
          1568 MiB given to the printing process from OS
          1256 MiB allocation reported by mallinfo(arena+hblkhd)
         57428 MiB available memory on the node where the printing process lives
     GPU memory used/free/total (MiB): 3192 / 13088 / 16280
------------------
     ethr =  2.37E-09,  avg # of iterations =  1.0
     Minimization algorithm failed to find Fermi energy: reverting to bisection
     Possible cause: smearing is larger than the electronic band-gap.

     total cpu time spent up to now is       18.3 secs

     total energy              =    -232.14079788 Ry
     estimated scf accuracy    <       0.00000887 Ry

     total magnetization       =    10.00 Bohr mag/cell
     absolute magnetization    =    13.42 Bohr mag/cell
[tb_dev] Currently allocated     3.89E+00 Mbytes, locked:    0 /   6
[tb_pin] Currently allocated     0.00E+00 Mbytes, locked:    0 /   0

     iteration #  6     ecut=    60.00 Ry     beta= 0.20
     Davidson diagonalization with overlap

---- Real-time Memory Report at c_bands before calling an iterative solver
          1600 MiB given to the printing process from OS
          1265 MiB allocation reported by mallinfo(arena+hblkhd)
         57419 MiB available memory on the node where the printing process lives
     GPU memory used/free/total (MiB): 3192 / 13088 / 16280
------------------
     ethr =  2.37E-09,  avg # of iterations =  1.0
     Minimization algorithm failed to find Fermi energy: reverting to bisection
     Possible cause: smearing is larger than the electronic band-gap.

     total cpu time spent up to now is       20.2 secs

     total energy              =    -232.14079553 Ry
     estimated scf accuracy    <       0.00001022 Ry

     total magnetization       =    10.00 Bohr mag/cell
     absolute magnetization    =    13.42 Bohr mag/cell
[tb_dev] Currently allocated     3.89E+00 Mbytes, locked:    0 /   6
[tb_pin] Currently allocated     0.00E+00 Mbytes, locked:    0 /   0

     iteration #  7     ecut=    60.00 Ry     beta= 0.20
     Davidson diagonalization with overlap

---- Real-time Memory Report at c_bands before calling an iterative solver
          1632 MiB given to the printing process from OS
          1274 MiB allocation reported by mallinfo(arena+hblkhd)
         57410 MiB available memory on the node where the printing process lives
     GPU memory used/free/total (MiB): 3192 / 13088 / 16280
------------------
     c_bands:  5 eigenvalues not converged
     c_bands:  1 eigenvalues not converged
     c_bands:  2 eigenvalues not converged
     c_bands:  5 eigenvalues not converged
     c_bands:  3 eigenvalues not converged
     c_bands:  1 eigenvalues not converged
     c_bands:  3 eigenvalues not converged
     c_bands:  2 eigenvalues not converged
     c_bands:  3 eigenvalues not converged
     c_bands:  4 eigenvalues not converged
     c_bands:  2 eigenvalues not converged
     c_bands:  4 eigenvalues not converged
     ethr =  2.37E-09,  avg # of iterations = 10.8
     Minimization algorithm failed to find Fermi energy: reverting to bisection
     Possible cause: smearing is larger than the electronic band-gap.

     total cpu time spent up to now is       24.4 secs

     total energy              =    -232.14079756 Ry
     estimated scf accuracy    <       0.00000312 Ry

     total magnetization       =    10.00 Bohr mag/cell
     absolute magnetization    =    13.43 Bohr mag/cell
[tb_dev] Currently allocated     3.89E+00 Mbytes, locked:    0 /   6
[tb_pin] Currently allocated     0.00E+00 Mbytes, locked:    0 /   0

     iteration #  8     ecut=    60.00 Ry     beta= 0.20
     Davidson diagonalization with overlap

---- Real-time Memory Report at c_bands before calling an iterative solver
          1666 MiB given to the printing process from OS
          1283 MiB allocation reported by mallinfo(arena+hblkhd)
         57401 MiB available memory on the node where the printing process lives
     GPU memory used/free/total (MiB): 3192 / 13088 / 16280
------------------
     c_bands:  1 eigenvalues not converged
     ethr =  2.37E-09,  avg # of iterations =  2.0
     Minimization algorithm failed to find Fermi energy: reverting to bisection
     Possible cause: smearing is larger than the electronic band-gap.

     total cpu time spent up to now is       26.4 secs

     total energy              =    -232.14079737 Ry
     estimated scf accuracy    <       0.00000290 Ry

     total magnetization       =    10.00 Bohr mag/cell
     absolute magnetization    =    13.43 Bohr mag/cell
[tb_dev] Currently allocated     3.89E+00 Mbytes, locked:    0 /   6
[tb_pin] Currently allocated     0.00E+00 Mbytes, locked:    0 /   0

     iteration #  9     ecut=    60.00 Ry     beta= 0.20
     Davidson diagonalization with overlap

---- Real-time Memory Report at c_bands before calling an iterative solver
          1696 MiB given to the printing process from OS
          1292 MiB allocation reported by mallinfo(arena+hblkhd)
         57392 MiB available memory on the node where the printing process lives
     GPU memory used/free/total (MiB): 3192 / 13088 / 16280
------------------
     ethr =  2.37E-09,  avg # of iterations =  1.0
     Minimization algorithm failed to find Fermi energy: reverting to bisection
     Possible cause: smearing is larger than the electronic band-gap.

     total cpu time spent up to now is       28.4 secs

     total energy              =    -232.14079724 Ry
     estimated scf accuracy    <       0.00000224 Ry

     total magnetization       =    10.00 Bohr mag/cell
     absolute magnetization    =    13.43 Bohr mag/cell
[tb_dev] Currently allocated     3.89E+00 Mbytes, locked:    0 /   6
[tb_pin] Currently allocated     0.00E+00 Mbytes, locked:    0 /   0

     iteration # 10     ecut=    60.00 Ry     beta= 0.20
     Davidson diagonalization with overlap

---- Real-time Memory Report at c_bands before calling an iterative solver
          1726 MiB given to the printing process from OS
          1301 MiB allocation reported by mallinfo(arena+hblkhd)
         57384 MiB available memory on the node where the printing process lives
     GPU memory used/free/total (MiB): 3192 / 13088 / 16280
------------------
     ethr =  2.37E-09,  avg # of iterations =  1.0
     Minimization algorithm failed to find Fermi energy: reverting to bisection
     Possible cause: smearing is larger than the electronic band-gap.

     total cpu time spent up to now is       30.3 secs

     total energy              =    -232.14079654 Ry
     estimated scf accuracy    <       0.00000188 Ry

     total magnetization       =    10.00 Bohr mag/cell
     absolute magnetization    =    13.43 Bohr mag/cell
[tb_dev] Currently allocated     3.89E+00 Mbytes, locked:    0 /   6
[tb_pin] Currently allocated     0.00E+00 Mbytes, locked:    0 /   0

     iteration # 11     ecut=    60.00 Ry     beta= 0.20
     Davidson diagonalization with overlap

---- Real-time Memory Report at c_bands before calling an iterative solver
          1752 MiB given to the printing process from OS
          1303 MiB allocation reported by mallinfo(arena+hblkhd)
         57382 MiB available memory on the node where the printing process lives
     GPU memory used/free/total (MiB): 3192 / 13088 / 16280
------------------
     c_bands:  1 eigenvalues not converged
     c_bands:  5 eigenvalues not converged
     c_bands:  2 eigenvalues not converged
     c_bands:  5 eigenvalues not converged
     c_bands:  4 eigenvalues not converged
     c_bands:  2 eigenvalues not converged
     c_bands:  4 eigenvalues not converged
     c_bands:  2 eigenvalues not converged
     c_bands:  1 eigenvalues not converged
     ethr =  2.37E-09,  avg # of iterations = 11.3
     Minimization algorithm failed to find Fermi energy: reverting to bisection
     Possible cause: smearing is larger than the electronic band-gap.

     total cpu time spent up to now is       34.7 secs

     total energy              =    -232.14079818 Ry
     estimated scf accuracy    <       0.00000871 Ry

     total magnetization       =    10.00 Bohr mag/cell
     absolute magnetization    =    13.42 Bohr mag/cell
[tb_dev] Currently allocated     3.89E+00 Mbytes, locked:    0 /   6
[tb_pin] Currently allocated     0.00E+00 Mbytes, locked:    0 /   0

     iteration # 12     ecut=    60.00 Ry     beta= 0.20
     Davidson diagonalization with overlap

---- Real-time Memory Report at c_bands before calling an iterative solver
          1776 MiB given to the printing process from OS
          1305 MiB allocation reported by mallinfo(arena+hblkhd)
         57380 MiB available memory on the node where the printing process lives
     GPU memory used/free/total (MiB): 3192 / 13088 / 16280
------------------
     ethr =  2.37E-09,  avg # of iterations =  1.4
     Minimization algorithm failed to find Fermi energy: reverting to bisection
     Possible cause: smearing is larger than the electronic band-gap.

     total cpu time spent up to now is       36.6 secs

     total energy              =    -232.14079659 Ry
     estimated scf accuracy    <       0.00000807 Ry

     total magnetization       =    10.00 Bohr mag/cell
     absolute magnetization    =    13.42 Bohr mag/cell
[tb_dev] Currently allocated     3.89E+00 Mbytes, locked:    0 /   6
[tb_pin] Currently allocated     0.00E+00 Mbytes, locked:    0 /   0

     iteration # 13     ecut=    60.00 Ry     beta= 0.20
     Davidson diagonalization with overlap

---- Real-time Memory Report at c_bands before calling an iterative solver
          1802 MiB given to the printing process from OS
          1307 MiB allocation reported by mallinfo(arena+hblkhd)
         57379 MiB available memory on the node where the printing process lives
     GPU memory used/free/total (MiB): 3192 / 13088 / 16280
------------------
     c_bands:  1 eigenvalues not converged
     c_bands:  2 eigenvalues not converged
     c_bands:  1 eigenvalues not converged
     ethr =  2.37E-09,  avg # of iterations =  8.4
     Minimization algorithm failed to find Fermi energy: reverting to bisection
     Possible cause: smearing is larger than the electronic band-gap.

     total cpu time spent up to now is       40.0 secs

     total energy              =    -232.14079737 Ry
     estimated scf accuracy    <       0.00000021 Ry

     total magnetization       =    10.00 Bohr mag/cell
     absolute magnetization    =    13.42 Bohr mag/cell
[tb_dev] Currently allocated     3.89E+00 Mbytes, locked:    0 /   6
[tb_pin] Currently allocated     0.00E+00 Mbytes, locked:    0 /   0

     iteration # 14     ecut=    60.00 Ry     beta= 0.20
     Davidson diagonalization with overlap

---- Real-time Memory Report at c_bands before calling an iterative solver
          1826 MiB given to the printing process from OS
          1308 MiB allocation reported by mallinfo(arena+hblkhd)
         57377 MiB available memory on the node where the printing process lives
     GPU memory used/free/total (MiB): 3192 / 13088 / 16280
------------------
     c_bands:  2 eigenvalues not converged
     ethr =  4.52E-10,  avg # of iterations =  5.5
     Minimization algorithm failed to find Fermi energy: reverting to bisection
     Possible cause: smearing is larger than the electronic band-gap.

     total cpu time spent up to now is       42.7 secs

     total energy              =    -232.14079736 Ry
     estimated scf accuracy    <       0.00000072 Ry

     total magnetization       =    10.00 Bohr mag/cell
     absolute magnetization    =    13.42 Bohr mag/cell
[tb_dev] Currently allocated     3.89E+00 Mbytes, locked:    0 /   6
[tb_pin] Currently allocated     0.00E+00 Mbytes, locked:    0 /   0

     iteration # 15     ecut=    60.00 Ry     beta= 0.20
     Davidson diagonalization with overlap

---- Real-time Memory Report at c_bands before calling an iterative solver
          1853 MiB given to the printing process from OS
          1310 MiB allocation reported by mallinfo(arena+hblkhd)
         57375 MiB available memory on the node where the printing process lives
     GPU memory used/free/total (MiB): 3192 / 13088 / 16280
------------------
     ethr =  4.52E-10,  avg # of iterations =  3.3
     Minimization algorithm failed to find Fermi energy: reverting to bisection
     Possible cause: smearing is larger than the electronic band-gap.

     total cpu time spent up to now is       45.0 secs

     total energy              =    -232.14079724 Ry
     estimated scf accuracy    <       0.00000032 Ry

     total magnetization       =    10.00 Bohr mag/cell
     absolute magnetization    =    13.42 Bohr mag/cell
[tb_dev] Currently allocated     3.89E+00 Mbytes, locked:    0 /   6
[tb_pin] Currently allocated     0.00E+00 Mbytes, locked:    0 /   0

     iteration # 16     ecut=    60.00 Ry     beta= 0.20
     Davidson diagonalization with overlap

---- Real-time Memory Report at c_bands before calling an iterative solver
          1877 MiB given to the printing process from OS
          1312 MiB allocation reported by mallinfo(arena+hblkhd)
         57372 MiB available memory on the node where the printing process lives
     GPU memory used/free/total (MiB): 3192 / 13088 / 16280
------------------
     c_bands:  2 eigenvalues not converged
     c_bands:  4 eigenvalues not converged
     c_bands:  4 eigenvalues not converged
     c_bands:  3 eigenvalues not converged
     c_bands:  2 eigenvalues not converged
     c_bands:  5 eigenvalues not converged
     c_bands:  4 eigenvalues not converged
     c_bands:  3 eigenvalues not converged
     c_bands:  4 eigenvalues not converged
     c_bands:  5 eigenvalues not converged
     c_bands:  1 eigenvalues not converged
     c_bands:  3 eigenvalues not converged
     c_bands:  2 eigenvalues not converged
     c_bands:  3 eigenvalues not converged
     c_bands:  5 eigenvalues not converged
     ethr =  4.52E-10,  avg # of iterations = 12.8
     Minimization algorithm failed to find Fermi energy: reverting to bisection
     Possible cause: smearing is larger than the electronic band-gap.

     total cpu time spent up to now is       49.8 secs

     total energy              =    -232.14079809 Ry
     estimated scf accuracy    <       0.00000367 Ry

     total magnetization       =    10.00 Bohr mag/cell
     absolute magnetization    =    13.43 Bohr mag/cell
[tb_dev] Currently allocated     3.89E+00 Mbytes, locked:    0 /   6
[tb_pin] Currently allocated     0.00E+00 Mbytes, locked:    0 /   0

     iteration # 17     ecut=    60.00 Ry     beta= 0.20
     Davidson diagonalization with overlap

---- Real-time Memory Report at c_bands before calling an iterative solver
          1901 MiB given to the printing process from OS
          1313 MiB allocation reported by mallinfo(arena+hblkhd)
         57372 MiB available memory on the node where the printing process lives
     GPU memory used/free/total (MiB): 3192 / 13088 / 16280
------------------
     c_bands:  1 eigenvalues not converged
     c_bands:  2 eigenvalues not converged
     c_bands:  2 eigenvalues not converged
     c_bands:  3 eigenvalues not converged
     c_bands:  2 eigenvalues not converged
     ethr =  4.52E-10,  avg # of iterations =  9.0
     Minimization algorithm failed to find Fermi energy: reverting to bisection
     Possible cause: smearing is larger than the electronic band-gap.

     total cpu time spent up to now is       53.3 secs

     total energy              =    -232.14079770 Ry
     estimated scf accuracy    <       0.00001129 Ry

     total magnetization       =    10.00 Bohr mag/cell
     absolute magnetization    =    13.44 Bohr mag/cell
[tb_dev] Currently allocated     3.89E+00 Mbytes, locked:    0 /   6
[tb_pin] Currently allocated     0.00E+00 Mbytes, locked:    0 /   0

     iteration # 18     ecut=    60.00 Ry     beta= 0.20
     Davidson diagonalization with overlap

---- Real-time Memory Report at c_bands before calling an iterative solver
          1928 MiB given to the printing process from OS
          1315 MiB allocation reported by mallinfo(arena+hblkhd)
         57371 MiB available memory on the node where the printing process lives
     GPU memory used/free/total (MiB): 3192 / 13088 / 16280
------------------
     ethr =  4.52E-10,  avg # of iterations =  2.4
     Minimization algorithm failed to find Fermi energy: reverting to bisection
     Possible cause: smearing is larger than the electronic band-gap.

     total cpu time spent up to now is       55.4 secs

     total energy              =    -232.14079793 Ry
     estimated scf accuracy    <       0.00000929 Ry

     total magnetization       =    10.00 Bohr mag/cell
     absolute magnetization    =    13.44 Bohr mag/cell
[tb_dev] Currently allocated     3.89E+00 Mbytes, locked:    0 /   6
[tb_pin] Currently allocated     0.00E+00 Mbytes, locked:    0 /   0

     iteration # 19     ecut=    60.00 Ry     beta= 0.20
     Davidson diagonalization with overlap

---- Real-time Memory Report at c_bands before calling an iterative solver
          1952 MiB given to the printing process from OS
          1317 MiB allocation reported by mallinfo(arena+hblkhd)
         57370 MiB available memory on the node where the printing process lives
     GPU memory used/free/total (MiB): 3192 / 13088 / 16280
------------------
     ethr =  4.52E-10,  avg # of iterations =  1.0
     Minimization algorithm failed to find Fermi energy: reverting to bisection
     Possible cause: smearing is larger than the electronic band-gap.

     total cpu time spent up to now is       57.3 secs

     total energy              =    -232.14079819 Ry
     estimated scf accuracy    <       0.00000975 Ry

     total magnetization       =    10.00 Bohr mag/cell
     absolute magnetization    =    13.44 Bohr mag/cell
[tb_dev] Currently allocated     3.89E+00 Mbytes, locked:    0 /   6
[tb_pin] Currently allocated     0.00E+00 Mbytes, locked:    0 /   0

     iteration # 20     ecut=    60.00 Ry     beta= 0.20
     Davidson diagonalization with overlap

---- Real-time Memory Report at c_bands before calling an iterative solver
          1975 MiB given to the printing process from OS
          1319 MiB allocation reported by mallinfo(arena+hblkhd)
         57368 MiB available memory on the node where the printing process lives
     GPU memory used/free/total (MiB): 3192 / 13088 / 16280
------------------
     ethr =  4.52E-10,  avg # of iterations =  1.1
     Minimization algorithm failed to find Fermi energy: reverting to bisection
     Possible cause: smearing is larger than the electronic band-gap.

     total cpu time spent up to now is       59.2 secs

     total energy              =    -232.14079886 Ry
     estimated scf accuracy    <       0.00001039 Ry

     total magnetization       =    10.00 Bohr mag/cell
     absolute magnetization    =    13.44 Bohr mag/cell
[tb_dev] Currently allocated     3.89E+00 Mbytes, locked:    0 /   6
[tb_pin] Currently allocated     0.00E+00 Mbytes, locked:    0 /   0

     iteration # 21     ecut=    60.00 Ry     beta= 0.20
     Davidson diagonalization with overlap

---- Real-time Memory Report at c_bands before calling an iterative solver
          1999 MiB given to the printing process from OS
          1320 MiB allocation reported by mallinfo(arena+hblkhd)
         57365 MiB available memory on the node where the printing process lives
     GPU memory used/free/total (MiB): 3192 / 13088 / 16280
------------------
     c_bands:  4 eigenvalues not converged
     c_bands:  5 eigenvalues not converged
     c_bands:  2 eigenvalues not converged
     c_bands:  3 eigenvalues not converged
     c_bands:  3 eigenvalues not converged
     c_bands:  2 eigenvalues not converged
     ethr =  4.52E-10,  avg # of iterations =  9.0
     Minimization algorithm failed to find Fermi energy: reverting to bisection
     Possible cause: smearing is larger than the electronic band-gap.

     total cpu time spent up to now is       62.9 secs

     total energy              =    -232.14079878 Ry
     estimated scf accuracy    <       0.00002249 Ry

     total magnetization       =    10.00 Bohr mag/cell
     absolute magnetization    =    13.44 Bohr mag/cell
[tb_dev] Currently allocated     3.89E+00 Mbytes, locked:    0 /   6
[tb_pin] Currently allocated     0.00E+00 Mbytes, locked:    0 /   0

     iteration # 22     ecut=    60.00 Ry     beta= 0.20
     Davidson diagonalization with overlap

---- Real-time Memory Report at c_bands before calling an iterative solver
          2023 MiB given to the printing process from OS
          1322 MiB allocation reported by mallinfo(arena+hblkhd)
         57365 MiB available memory on the node where the printing process lives
     GPU memory used/free/total (MiB): 3192 / 13088 / 16280
------------------
     ethr =  4.52E-10,  avg # of iterations =  1.4
     Minimization algorithm failed to find Fermi energy: reverting to bisection
     Possible cause: smearing is larger than the electronic band-gap.

     total cpu time spent up to now is       64.9 secs

     total energy              =    -232.14079739 Ry
     estimated scf accuracy    <       0.00002174 Ry

     total magnetization       =    10.00 Bohr mag/cell
     absolute magnetization    =    13.44 Bohr mag/cell
[tb_dev] Currently allocated     3.89E+00 Mbytes, locked:    0 /   6
[tb_pin] Currently allocated     0.00E+00 Mbytes, locked:    0 /   0

     iteration # 23     ecut=    60.00 Ry     beta= 0.20
     Davidson diagonalization with overlap

---- Real-time Memory Report at c_bands before calling an iterative solver
          2038 MiB given to the printing process from OS
          1324 MiB allocation reported by mallinfo(arena+hblkhd)
         57362 MiB available memory on the node where the printing process lives
     GPU memory used/free/total (MiB): 3192 / 13088 / 16280
------------------
     c_bands:  1 eigenvalues not converged
     c_bands:  3 eigenvalues not converged
     c_bands:  5 eigenvalues not converged
     c_bands:  3 eigenvalues not converged
     c_bands:  1 eigenvalues not converged
     c_bands:  3 eigenvalues not converged
     c_bands:  4 eigenvalues not converged
     c_bands:  2 eigenvalues not converged
     c_bands:  2 eigenvalues not converged
     c_bands:  5 eigenvalues not converged
     ethr =  4.52E-10,  avg # of iterations = 10.2
     Minimization algorithm failed to find Fermi energy: reverting to bisection
     Possible cause: smearing is larger than the electronic band-gap.

     total cpu time spent up to now is       68.8 secs

     total energy              =    -232.14079632 Ry
     estimated scf accuracy    <       0.00000906 Ry

     total magnetization       =    10.00 Bohr mag/cell
     absolute magnetization    =    13.44 Bohr mag/cell
[tb_dev] Currently allocated     3.89E+00 Mbytes, locked:    0 /   6
[tb_pin] Currently allocated     0.00E+00 Mbytes, locked:    0 /   0

     iteration # 24     ecut=    60.00 Ry     beta= 0.20
     Davidson diagonalization with overlap

---- Real-time Memory Report at c_bands before calling an iterative solver
          2051 MiB given to the printing process from OS
          1326 MiB allocation reported by mallinfo(arena+hblkhd)
         57359 MiB available memory on the node where the printing process lives
     GPU memory used/free/total (MiB): 3192 / 13088 / 16280
------------------
     c_bands:  4 eigenvalues not converged
     c_bands:  2 eigenvalues not converged
     c_bands:  4 eigenvalues not converged
     c_bands:  3 eigenvalues not converged
     c_bands:  1 eigenvalues not converged
     c_bands:  4 eigenvalues not converged
     c_bands:  5 eigenvalues not converged
     c_bands:  5 eigenvalues not converged
     c_bands:  1 eigenvalues not converged
     c_bands:  4 eigenvalues not converged
     c_bands:  1 eigenvalues not converged
     c_bands:  2 eigenvalues not converged
     c_bands:  1 eigenvalues not converged
     ethr =  4.52E-10,  avg # of iterations = 19.9
     Minimization algorithm failed to find Fermi energy: reverting to bisection
     Possible cause: smearing is larger than the electronic band-gap.

     total cpu time spent up to now is       75.7 secs

     total energy              =    -232.14079732 Ry
     estimated scf accuracy    <       0.00000170 Ry

     total magnetization       =    10.00 Bohr mag/cell
     absolute magnetization    =    13.42 Bohr mag/cell
[tb_dev] Currently allocated     3.89E+00 Mbytes, locked:    0 /   6
[tb_pin] Currently allocated     0.00E+00 Mbytes, locked:    0 /   0

     iteration # 25     ecut=    60.00 Ry     beta= 0.20
     Davidson diagonalization with overlap

---- Real-time Memory Report at c_bands before calling an iterative solver
          2059 MiB given to the printing process from OS
          1327 MiB allocation reported by mallinfo(arena+hblkhd)
         57361 MiB available memory on the node where the printing process lives
     GPU memory used/free/total (MiB): 3192 / 13088 / 16280
------------------
     c_bands:  2 eigenvalues not converged
     c_bands:  3 eigenvalues not converged
     c_bands:  1 eigenvalues not converged
     ethr =  4.52E-10,  avg # of iterations =  7.3
     Minimization algorithm failed to find Fermi energy: reverting to bisection
     Possible cause: smearing is larger than the electronic band-gap.

     total cpu time spent up to now is       79.0 secs

     total energy              =    -232.14079738 Ry
     estimated scf accuracy    <       0.00000021 Ry

     total magnetization       =    10.00 Bohr mag/cell
     absolute magnetization    =    13.43 Bohr mag/cell
[tb_dev] Currently allocated     3.89E+00 Mbytes, locked:    0 /   6
[tb_pin] Currently allocated     0.00E+00 Mbytes, locked:    0 /   0

     iteration # 26     ecut=    60.00 Ry     beta= 0.20
     Davidson diagonalization with overlap

---- Real-time Memory Report at c_bands before calling an iterative solver
          2075 MiB given to the printing process from OS
          1329 MiB allocation reported by mallinfo(arena+hblkhd)
         57358 MiB available memory on the node where the printing process lives
     GPU memory used/free/total (MiB): 3192 / 13088 / 16280
------------------
     ethr =  4.52E-10,  avg # of iterations =  4.9
     Minimization algorithm failed to find Fermi energy: reverting to bisection
     Possible cause: smearing is larger than the electronic band-gap.

     total cpu time spent up to now is       81.5 secs

     total energy              =    -232.14079745 Ry
     estimated scf accuracy    <       0.00000002 Ry

     total magnetization       =    10.00 Bohr mag/cell
     absolute magnetization    =    13.43 Bohr mag/cell
[tb_dev] Currently allocated     3.89E+00 Mbytes, locked:    0 /   6
[tb_pin] Currently allocated     0.00E+00 Mbytes, locked:    0 /   0

     iteration # 27     ecut=    60.00 Ry     beta= 0.20
     Davidson diagonalization with overlap

---- Real-time Memory Report at c_bands before calling an iterative solver
          2087 MiB given to the printing process from OS
          1331 MiB allocation reported by mallinfo(arena+hblkhd)
         57355 MiB available memory on the node where the printing process lives
     GPU memory used/free/total (MiB): 3192 / 13088 / 16280
------------------
     c_bands:  3 eigenvalues not converged
     c_bands:  4 eigenvalues not converged
     c_bands:  4 eigenvalues not converged
     c_bands:  3 eigenvalues not converged
     c_bands:  1 eigenvalues not converged
     c_bands:  5 eigenvalues not converged
     c_bands:  2 eigenvalues not converged
     c_bands:  4 eigenvalues not converged
     c_bands:  2 eigenvalues not converged
     c_bands:  3 eigenvalues not converged
     c_bands:  2 eigenvalues not converged
     c_bands:  5 eigenvalues not converged
     c_bands:  2 eigenvalues not converged
     c_bands:  2 eigenvalues not converged
     c_bands:  3 eigenvalues not converged
     ethr =  3.45E-11,  avg # of iterations = 16.4
     Minimization algorithm failed to find Fermi energy: reverting to bisection
     Possible cause: smearing is larger than the electronic band-gap.

     total cpu time spent up to now is       87.1 secs

     total energy              =    -232.14079741 Ry
     estimated scf accuracy    <       0.00000081 Ry

     total magnetization       =    10.00 Bohr mag/cell
     absolute magnetization    =    13.43 Bohr mag/cell
[tb_dev] Currently allocated     3.89E+00 Mbytes, locked:    0 /   6
[tb_pin] Currently allocated     0.00E+00 Mbytes, locked:    0 /   0

     iteration # 28     ecut=    60.00 Ry     beta= 0.20
     Davidson diagonalization with overlap

---- Real-time Memory Report at c_bands before calling an iterative solver
          2099 MiB given to the printing process from OS
          1332 MiB allocation reported by mallinfo(arena+hblkhd)
         57356 MiB available memory on the node where the printing process lives
     GPU memory used/free/total (MiB): 3192 / 13088 / 16280
------------------
     c_bands:  2 eigenvalues not converged
     c_bands:  4 eigenvalues not converged
     c_bands:  5 eigenvalues not converged
     c_bands:  1 eigenvalues not converged
     c_bands:  1 eigenvalues not converged
     c_bands:  1 eigenvalues not converged
     c_bands:  4 eigenvalues not converged
     c_bands:  4 eigenvalues not converged
     c_bands:  1 eigenvalues not converged
     c_bands:  4 eigenvalues not converged
     c_bands:  4 eigenvalues not converged
     c_bands:  1 eigenvalues not converged
     ethr =  3.45E-11,  avg # of iterations = 17.8
     Minimization algorithm failed to find Fermi energy: reverting to bisection
     Possible cause: smearing is larger than the electronic band-gap.

     total cpu time spent up to now is       93.4 secs

     total energy              =    -232.14079750 Ry
     estimated scf accuracy    <       0.00000003 Ry

     total magnetization       =    10.00 Bohr mag/cell
     absolute magnetization    =    13.43 Bohr mag/cell
[tb_dev] Currently allocated     3.89E+00 Mbytes, locked:    0 /   6
[tb_pin] Currently allocated     0.00E+00 Mbytes, locked:    0 /   0

     iteration # 29     ecut=    60.00 Ry     beta= 0.20
     Davidson diagonalization with overlap

---- Real-time Memory Report at c_bands before calling an iterative solver
          2112 MiB given to the printing process from OS
          1334 MiB allocation reported by mallinfo(arena+hblkhd)
         57356 MiB available memory on the node where the printing process lives
     GPU memory used/free/total (MiB): 3192 / 13088 / 16280
------------------
     c_bands:  3 eigenvalues not converged
     ethr =  3.45E-11,  avg # of iterations =  3.6
     Minimization algorithm failed to find Fermi energy: reverting to bisection
     Possible cause: smearing is larger than the electronic band-gap.

     total cpu time spent up to now is       95.8 secs

     total energy              =    -232.14079753 Ry
     estimated scf accuracy    <       0.00000007 Ry

     total magnetization       =    10.00 Bohr mag/cell
     absolute magnetization    =    13.43 Bohr mag/cell
[tb_dev] Currently allocated     3.89E+00 Mbytes, locked:    0 /   6
[tb_pin] Currently allocated     0.00E+00 Mbytes, locked:    0 /   0

     iteration # 30     ecut=    60.00 Ry     beta= 0.20
     Davidson diagonalization with overlap

---- Real-time Memory Report at c_bands before calling an iterative solver
          2117 MiB given to the printing process from OS
          1336 MiB allocation reported by mallinfo(arena+hblkhd)
         57352 MiB available memory on the node where the printing process lives
     GPU memory used/free/total (MiB): 3192 / 13088 / 16280
------------------
     c_bands:  2 eigenvalues not converged
     c_bands:  2 eigenvalues not converged
     c_bands:  5 eigenvalues not converged
     c_bands:  2 eigenvalues not converged
     c_bands:  2 eigenvalues not converged
     c_bands:  5 eigenvalues not converged
     c_bands:  3 eigenvalues not converged
     c_bands:  5 eigenvalues not converged
     c_bands:  1 eigenvalues not converged
     c_bands:  5 eigenvalues not converged
     c_bands:  2 eigenvalues not converged
     c_bands:  1 eigenvalues not converged
     c_bands:  1 eigenvalues not converged
     ethr =  3.45E-11,  avg # of iterations = 15.0
     Minimization algorithm failed to find Fermi energy: reverting to bisection
     Possible cause: smearing is larger than the electronic band-gap.

     total cpu time spent up to now is      101.2 secs

     total energy              =    -232.14079778 Ry
     estimated scf accuracy    <       0.00000113 Ry

     total magnetization       =    10.00 Bohr mag/cell
     absolute magnetization    =    13.42 Bohr mag/cell
[tb_dev] Currently allocated     3.89E+00 Mbytes, locked:    0 /   6
[tb_pin] Currently allocated     0.00E+00 Mbytes, locked:    0 /   0

     iteration # 31     ecut=    60.00 Ry     beta= 0.20
     Davidson diagonalization with overlap

---- Real-time Memory Report at c_bands before calling an iterative solver
          2130 MiB given to the printing process from OS
          1338 MiB allocation reported by mallinfo(arena+hblkhd)
         57352 MiB available memory on the node where the printing process lives
     GPU memory used/free/total (MiB): 3192 / 13088 / 16280
------------------
     c_bands:  3 eigenvalues not converged
     c_bands:  3 eigenvalues not converged
     c_bands:  3 eigenvalues not converged
     c_bands:  1 eigenvalues not converged
     c_bands:  5 eigenvalues not converged
     c_bands:  2 eigenvalues not converged
     c_bands:  2 eigenvalues not converged
     c_bands:  2 eigenvalues not converged
     c_bands:  5 eigenvalues not converged
     c_bands:  3 eigenvalues not converged
     c_bands:  2 eigenvalues not converged
     c_bands:  1 eigenvalues not converged
     c_bands:  5 eigenvalues not converged
     c_bands:  4 eigenvalues not converged
     c_bands:  5 eigenvalues not converged
     c_bands:  4 eigenvalues not converged
     ethr =  3.45E-11,  avg # of iterations = 25.6
     Minimization algorithm failed to find Fermi energy: reverting to bisection
     Possible cause: smearing is larger than the electronic band-gap.

     total cpu time spent up to now is      109.6 secs

     total energy              =    -232.14079751 Ry
     estimated scf accuracy    <       0.00000807 Ry

     total magnetization       =    10.00 Bohr mag/cell
     absolute magnetization    =    13.42 Bohr mag/cell
[tb_dev] Currently allocated     3.89E+00 Mbytes, locked:    0 /   6
[tb_pin] Currently allocated     0.00E+00 Mbytes, locked:    0 /   0

     iteration # 32     ecut=    60.00 Ry     beta= 0.20
     Davidson diagonalization with overlap

---- Real-time Memory Report at c_bands before calling an iterative solver
          2139 MiB given to the printing process from OS
          1339 MiB allocation reported by mallinfo(arena+hblkhd)
         57348 MiB available memory on the node where the printing process lives
     GPU memory used/free/total (MiB): 3192 / 13088 / 16280
------------------
     c_bands:  5 eigenvalues not converged
     c_bands:  5 eigenvalues not converged
     c_bands:  4 eigenvalues not converged
     c_bands:  1 eigenvalues not converged
     c_bands:  1 eigenvalues not converged
     c_bands:  3 eigenvalues not converged
     c_bands:  5 eigenvalues not converged
     c_bands:  5 eigenvalues not converged
     c_bands:  4 eigenvalues not converged
     c_bands:  2 eigenvalues not converged
     ethr =  3.45E-11,  avg # of iterations = 16.8
     Minimization algorithm failed to find Fermi energy: reverting to bisection
     Possible cause: smearing is larger than the electronic band-gap.

     total cpu time spent up to now is      115.5 secs

     total energy              =    -232.14079695 Ry
     estimated scf accuracy    <       0.00000318 Ry

     total magnetization       =    10.00 Bohr mag/cell
     absolute magnetization    =    13.42 Bohr mag/cell
[tb_dev] Currently allocated     3.89E+00 Mbytes, locked:    0 /   6
[tb_pin] Currently allocated     0.00E+00 Mbytes, locked:    0 /   0

     iteration # 33     ecut=    60.00 Ry     beta= 0.20
     Davidson diagonalization with overlap

---- Real-time Memory Report at c_bands before calling an iterative solver
          2147 MiB given to the printing process from OS
          1341 MiB allocation reported by mallinfo(arena+hblkhd)
         57347 MiB available memory on the node where the printing process lives
     GPU memory used/free/total (MiB): 3192 / 13088 / 16280
------------------
     c_bands:  3 eigenvalues not converged
     c_bands:  5 eigenvalues not converged
     c_bands:  5 eigenvalues not converged
     c_bands:  2 eigenvalues not converged
     c_bands:  5 eigenvalues not converged
     c_bands:  2 eigenvalues not converged
     c_bands:  3 eigenvalues not converged
     c_bands:  5 eigenvalues not converged
     c_bands:  5 eigenvalues not converged
     c_bands:  4 eigenvalues not converged
     c_bands:  2 eigenvalues not converged
     c_bands:  2 eigenvalues not converged
     c_bands:  1 eigenvalues not converged
     c_bands:  5 eigenvalues not converged
     c_bands:  1 eigenvalues not converged
     c_bands:  1 eigenvalues not converged
     ethr =  3.45E-11,  avg # of iterations = 34.6
     Minimization algorithm failed to find Fermi energy: reverting to bisection
     Possible cause: smearing is larger than the electronic band-gap.

     total cpu time spent up to now is      126.8 secs

     total energy              =    -232.14079776 Ry
     estimated scf accuracy    <       0.00000370 Ry

     total magnetization       =    10.00 Bohr mag/cell
     absolute magnetization    =    13.43 Bohr mag/cell
[tb_dev] Currently allocated     3.89E+00 Mbytes, locked:    0 /   6
[tb_pin] Currently allocated     0.00E+00 Mbytes, locked:    0 /   0

     iteration # 34     ecut=    60.00 Ry     beta= 0.20
     Davidson diagonalization with overlap

---- Real-time Memory Report at c_bands before calling an iterative solver
          2156 MiB given to the printing process from OS
          1343 MiB allocation reported by mallinfo(arena+hblkhd)
         57347 MiB available memory on the node where the printing process lives
     GPU memory used/free/total (MiB): 3192 / 13088 / 16280
------------------
     c_bands:  1 eigenvalues not converged
     c_bands:  4 eigenvalues not converged
     c_bands:  1 eigenvalues not converged
     c_bands:  1 eigenvalues not converged
     c_bands:  2 eigenvalues not converged
     c_bands:  4 eigenvalues not converged
     c_bands:  1 eigenvalues not converged
     c_bands:  1 eigenvalues not converged
     c_bands:  3 eigenvalues not converged
     ethr =  3.45E-11,  avg # of iterations =  8.2
     Minimization algorithm failed to find Fermi energy: reverting to bisection
     Possible cause: smearing is larger than the electronic band-gap.

     total cpu time spent up to now is      130.0 secs

     total energy              =    -232.14079775 Ry
     estimated scf accuracy    <       0.00000476 Ry

     total magnetization       =    10.00 Bohr mag/cell
     absolute magnetization    =    13.44 Bohr mag/cell
[tb_dev] Currently allocated     3.89E+00 Mbytes, locked:    0 /   6
[tb_pin] Currently allocated     0.00E+00 Mbytes, locked:    0 /   0

     iteration # 35     ecut=    60.00 Ry     beta= 0.20
     Davidson diagonalization with overlap

---- Real-time Memory Report at c_bands before calling an iterative solver
          2166 MiB given to the printing process from OS
          1345 MiB allocation reported by mallinfo(arena+hblkhd)
         57345 MiB available memory on the node where the printing process lives
     GPU memory used/free/total (MiB): 3192 / 13088 / 16280
------------------
     c_bands:  1 eigenvalues not converged
     c_bands:  1 eigenvalues not converged
     ethr =  3.45E-11,  avg # of iterations =  3.0
     Minimization algorithm failed to find Fermi energy: reverting to bisection
     Possible cause: smearing is larger than the electronic band-gap.

     total cpu time spent up to now is      132.3 secs

     total energy              =    -232.14079729 Ry
     estimated scf accuracy    <       0.00000486 Ry

     total magnetization       =    10.00 Bohr mag/cell
     absolute magnetization    =    13.44 Bohr mag/cell
[tb_dev] Currently allocated     3.89E+00 Mbytes, locked:    0 /   6
[tb_pin] Currently allocated     0.00E+00 Mbytes, locked:    0 /   0

     iteration # 36     ecut=    60.00 Ry     beta= 0.20
     Davidson diagonalization with overlap

---- Real-time Memory Report at c_bands before calling an iterative solver
          2174 MiB given to the printing process from OS
          1346 MiB allocation reported by mallinfo(arena+hblkhd)
         57344 MiB available memory on the node where the printing process lives
     GPU memory used/free/total (MiB): 3192 / 13088 / 16280
------------------
     c_bands:  3 eigenvalues not converged
     c_bands:  5 eigenvalues not converged
     c_bands:  5 eigenvalues not converged
     c_bands:  2 eigenvalues not converged
     c_bands:  2 eigenvalues not converged
     c_bands:  5 eigenvalues not converged
     c_bands:  5 eigenvalues not converged
     c_bands:  5 eigenvalues not converged
     c_bands:  1 eigenvalues not converged
     c_bands:  1 eigenvalues not converged
     c_bands:  2 eigenvalues not converged
     c_bands:  2 eigenvalues not converged
     c_bands:  4 eigenvalues not converged
     c_bands:  5 eigenvalues not converged
     ethr =  3.45E-11,  avg # of iterations = 21.8
     Minimization algorithm failed to find Fermi energy: reverting to bisection
     Possible cause: smearing is larger than the electronic band-gap.

     total cpu time spent up to now is      139.7 secs

     total energy              =    -232.14079748 Ry
     estimated scf accuracy    <       0.00000026 Ry

     total magnetization       =    10.00 Bohr mag/cell
     absolute magnetization    =    13.43 Bohr mag/cell
[tb_dev] Currently allocated     3.89E+00 Mbytes, locked:    0 /   6
[tb_pin] Currently allocated     0.00E+00 Mbytes, locked:    0 /   0

     iteration # 37     ecut=    60.00 Ry     beta= 0.20
     Davidson diagonalization with overlap

---- Real-time Memory Report at c_bands before calling an iterative solver
          2183 MiB given to the printing process from OS
          1348 MiB allocation reported by mallinfo(arena+hblkhd)
         57343 MiB available memory on the node where the printing process lives
     GPU memory used/free/total (MiB): 3192 / 13088 / 16280
------------------
     c_bands:  5 eigenvalues not converged
     c_bands:  2 eigenvalues not converged
     c_bands:  1 eigenvalues not converged
     c_bands:  1 eigenvalues not converged
     c_bands:  2 eigenvalues not converged
     ethr =  3.45E-11,  avg # of iterations =  7.0
     Minimization algorithm failed to find Fermi energy: reverting to bisection
     Possible cause: smearing is larger than the electronic band-gap.

     total cpu time spent up to now is      142.9 secs

[...]
    -4.0585  -4.0585  -3.9426  -3.9423  -3.8903  -3.8903  -3.1157  -1.9487
    -1.9487  -1.9211  -1.2529  -1.0533  -1.0533  -0.9396  -0.7802  -0.2502
    -0.1468  -0.0864  -0.0864  -0.0182

     occupation numbers 
     1.0000   1.0000   1.0000   1.0000   1.0000   1.0000   1.0000   1.0000
     1.0000   1.0000   1.0000   1.0000   1.0000   1.0000   1.0000   1.0737
     1.0737   1.0346   0.0000   0.0000   0.0000   0.0000   0.0000   0.0000
     0.0000   0.0000   0.0000   0.0000

          k = 0.5051 0.1010-0.1010 ( 14916 PWs)   bands (ev):

   -16.2427 -16.2322 -12.7976 -12.0363 -12.0284 -12.0218 -11.7177 -11.6901
    -4.0245  -4.0175  -3.9495  -3.8879  -3.8716  -3.8665  -3.0659  -2.0029
    -1.9427  -1.8936  -1.3353  -1.1069  -1.0750  -0.9833  -0.7980  -0.3175
    -0.1728  -0.1065  -0.0786  -0.0591

     occupation numbers 
     1.0000   1.0000   1.0000   1.0000   1.0000   1.0000   1.0000   1.0000
     1.0000   1.0000   1.0000   1.0000   1.0000   1.0000   1.0000   1.0744
     1.0680   0.9594   0.0000   0.0000   0.0000   0.0000   0.0000   0.0000
     0.0000   0.0000   0.0000   0.0000

          k =-0.1010-0.5051 0.5051 ( 14939 PWs)   bands (ev):

   -16.2387 -16.2357 -12.7972 -12.0414 -12.0242 -12.0235 -11.7146 -11.6960
    -3.9920  -3.9790  -3.9551  -3.9178  -3.8598  -3.8320  -3.0398  -2.0414
    -1.9081  -1.9063  -1.3342  -1.1995  -1.0846  -0.9659  -0.8414  -0.2814
    -0.1656  -0.1431  -0.1327  -0.0675

     occupation numbers 
     1.0000   1.0000   1.0000   1.0000   1.0000   1.0000   1.0000   1.0000
     1.0000   1.0000   1.0000   1.0000   1.0000   1.0000   1.0000   1.0493
     1.0039   0.9990   0.0000   0.0000   0.0000   0.0000   0.0000   0.0000
     0.0000   0.0000   0.0000   0.0000

          k = 0.0000-0.4041 0.4041 ( 14947 PWs)   bands (ev):

   -16.2399 -16.2349 -12.7974 -12.0419 -12.0280 -12.0179 -11.7062 -11.7015
    -4.0072  -3.9731  -3.9697  -3.9202  -3.8819  -3.8513  -3.0588  -2.0478
    -1.9363  -1.8657  -1.2586  -1.2266  -1.0739  -0.9039  -0.8776  -0.2289
    -0.1646  -0.1529  -0.1324  -0.0623

     occupation numbers 
     1.0000   1.0000   1.0000   1.0000   1.0000   1.0000   1.0000   1.0000
     1.0000   1.0000   1.0000   1.0000   1.0000   1.0000   1.0000   1.0450
     1.0603   0.8470   0.0000   0.0000   0.0000   0.0000   0.0000   0.0000
     0.0000   0.0000   0.0000   0.0000

          k = 0.6061-0.0000 0.0000 ( 14900 PWs)   bands (ev):

   -16.2419 -16.2323 -12.7974 -12.0320 -12.0320 -12.0240 -11.7254 -11.6870
    -4.0105  -4.0105  -3.9457  -3.8674  -3.8674  -3.8172  -3.0387  -1.9678
    -1.9678  -1.9073  -1.4139  -1.0879  -1.0879  -1.0439  -0.7793  -0.3978
    -0.1911  -0.0940  -0.0940  -0.0506

     occupation numbers 
     1.0000   1.0000   1.0000   1.0000   1.0000   1.0000   1.0000   1.0000
     1.0000   1.0000   1.0000   1.0000   1.0000   1.0000   1.0000   1.0828
     1.0828   1.0017   0.0000   0.0000   0.0000   0.0000   0.0000   0.0000
     0.0000   0.0000   0.0000   0.0000

          k =-0.0000-0.6061 0.6061 ( 14928 PWs)   bands (ev):

   -16.2405 -16.2335 -12.7972 -12.0348 -12.0299 -12.0248 -11.7239 -11.6895
    -3.9984  -3.9905  -3.9511  -3.8783  -3.8608  -3.8029  -3.0269  -1.9894
    -1.9525  -1.9104  -1.4128  -1.1382  -1.0924  -1.0351  -0.7981  -0.3698
    -0.1878  -0.1099  -0.0887  -0.0874

     occupation numbers 
     1.0000   1.0000   1.0000   1.0000   1.0000   1.0000   1.0000   1.0000
     1.0000   1.0000   1.0000   1.0000   1.0000   1.0000   1.0000   1.0805
     1.0765   1.0098   0.0000   0.0000   0.0000   0.0000   0.0000   0.0000
     0.0000   0.0000   0.0000   0.0000

          k = 0.4041 0.2020 0.0000 ( 14908 PWs)   bands (ev):

   -16.2442 -16.2316 -12.7979 -12.0374 -12.0288 -12.0181 -11.7096 -11.6934
    -4.0430  -4.0320  -3.9515  -3.9245  -3.8988  -3.8787  -3.0977  -2.0151
    -1.9445  -1.8694  -1.2566  -1.1084  -1.0580  -0.9225  -0.8155  -0.2506
    -0.1610  -0.1012  -0.0695  -0.0578

     occupation numbers 
     1.0000   1.0000   1.0000   1.0000   1.0000   1.0000   1.0000   1.0000
     1.0000   1.0000   1.0000   1.0000   1.0000   1.0000   1.0000   1.0672
     1.0699   0.8635   0.0000   0.0000   0.0000   0.0000   0.0000   0.0000
     0.0000   0.0000   0.0000   0.0000

          k =-0.2020-0.4041 0.6061 ( 14914 PWs)   bands (ev):

   -16.2396 -16.2351 -12.7973 -12.0426 -12.0256 -12.0198 -11.7107 -11.6980
    -4.0026  -3.9792  -3.9629  -3.9207  -3.8653  -3.8518  -3.0529  -2.0516
    -1.9207  -1.8788  -1.3036  -1.1935  -1.0772  -0.9367  -0.8533  -0.2725
    -0.1656  -0.1376  -0.1155  -0.0613

     occupation numbers 
     1.0000   1.0000   1.0000   1.0000   1.0000   1.0000   1.0000   1.0000
     1.0000   1.0000   1.0000   1.0000   1.0000   1.0000   1.0000   1.0425
     1.0339   0.9038   0.0000   0.0000   0.0000   0.0000   0.0000   0.0000
     0.0000   0.0000   0.0000   0.0000

          k =-0.1010-0.5051 0.7071 ( 14913 PWs)   bands (ev):

   -16.2403 -16.2339 -12.7972 -12.0350 -12.0305 -12.0236 -11.7196 -11.6921
    -4.0001  -3.9853  -3.9554  -3.8921  -3.8586  -3.8223  -3.0351  -1.9940
    -1.9564  -1.9038  -1.3706  -1.1706  -1.0866  -1.0022  -0.8153  -0.3199
    -0.1770  -0.1144  -0.1014  -0.0894

     occupation numbers 
     1.0000   1.0000   1.0000   1.0000   1.0000   1.0000   1.0000   1.0000
     1.0000   1.0000   1.0000   1.0000   1.0000   1.0000   1.0000   1.0787
     1.0789   0.9919   0.0000   0.0000   0.0000   0.0000   0.0000   0.0000
     0.0000   0.0000   0.0000   0.0000

          k =-0.0000-0.4041 0.6061 ( 14941 PWs)   bands (ev):

   -16.2376 -16.2365 -12.7971 -12.0373 -12.0273 -12.0256 -11.7151 -11.6967
    -3.9846  -3.9707  -3.9444  -3.9269  -3.8522  -3.8198  -3.0293  -2.0113
    -1.9308  -1.9206  -1.3167  -1.2568  -1.0879  -0.9693  -0.8492  -0.2361
    -0.1836  -0.1548  -0.1426  -0.0837

     occupation numbers 
     1.0000   1.0000   1.0000   1.0000   1.0000   1.0000   1.0000   1.0000
     1.0000   1.0000   1.0000   1.0000   1.0000   1.0000   1.0000   1.0696
     1.0523   1.0336   0.0000   0.0000   0.0000   0.0000   0.0000   0.0000
     0.0000   0.0000   0.0000   0.0000

     the Fermi energy is    -1.7814 ev

!    total energy              =    -232.14079750 Ry
     estimated scf accuracy    <          1.7E-09 Ry
     smearing contrib. (-TS)   =       0.00252492 Ry
     internal energy E=F+TS    =    -232.14332241 Ry

     The total energy is F=E-TS. E is the sum of the following terms:
     one-electron contribution =     -72.93018380 Ry
     hartree contribution      =      50.61154711 Ry
     xc contribution           =     -70.29219963 Ry
     ewald contribution        =    -109.09983443 Ry
     one-center paw contrib.   =     -30.43265167 Ry
      -> PAW hartree energy AE =       1.39343006 Ry
      -> PAW hartree energy PS =      -1.39105466 Ry
      -> PAW xc energy AE      =     -32.01263327 Ry
      -> PAW xc energy PS      =       1.57760621 Ry
      -> total E_H with PAW    =      50.61392251 Ry
      -> total E_XC with PAW   =    -100.72722669 Ry

     total magnetization       =    10.00 Bohr mag/cell
     absolute magnetization    =    13.43 Bohr mag/cell

     convergence has been achieved in  38 iterations

     Forces acting on atoms (cartesian axes, Ry/au):

     atom    1 type  2   force =     0.00000000    0.00000000    0.00000000
     atom    2 type  1   force =     0.00000000    0.00000000    0.00000000
     atom    3 type  1   force =     0.00000000    0.00000000    0.00000000
     atom    4 type  3   force =    -0.00422421    0.00000000   -0.00000000
     atom    5 type  3   force =    -0.00000000    0.00000000    0.00422421
     atom    6 type  3   force =    -0.00000000   -0.00422421    0.00000000
     atom    7 type  3   force =     0.00000000   -0.00000000   -0.00422421
     atom    8 type  3   force =    -0.00000000    0.00422421    0.00000000
     atom    9 type  3   force =     0.00422421   -0.00000000    0.00000000
     The non-local contrib.  to forces
     atom    1 type  2   force =     0.00000000    0.00000000    0.00000000
     atom    2 type  1   force =     0.00000000   -0.00000000   -0.00000000
     atom    3 type  1   force =    -0.00000000    0.00000000    0.00000000
     atom    4 type  3   force =    -0.45724446    0.00000000   -0.00000000
     atom    5 type  3   force =    -0.00000000    0.00000000    0.45724446
     atom    6 type  3   force =     0.00000000   -0.45724446   -0.00000000
     atom    7 type  3   force =     0.00000000   -0.00000000   -0.45724446
     atom    8 type  3   force =     0.00000000    0.45724446   -0.00000000
     atom    9 type  3   force =     0.45724446    0.00000000   -0.00000000
     The ionic contribution  to forces
     atom    1 type  2   force =    -0.00000000    0.00000000    0.00000000
     atom    2 type  1   force =     0.00000000    0.00000000    0.00000000
     atom    3 type  1   force =    -0.00000000    0.00000000    0.00000000
     atom    4 type  3   force =     3.09063572    0.00000000    0.00000000
     atom    5 type  3   force =     0.00000000    0.00000000   -3.09063572
     atom    6 type  3   force =    -0.00000000    3.09063572    0.00000000
     atom    7 type  3   force =    -0.00000000    0.00000000    3.09063572
     atom    8 type  3   force =    -0.00000000   -3.09063572   -0.00000000
     atom    9 type  3   force =    -3.09063572    0.00000000    0.00000000
     The local contribution  to forces
     atom    1 type  2   force =     0.00000000    0.00000000    0.00000000
     atom    2 type  1   force =    -0.00000000   -0.00000000   -0.00000000
     atom    3 type  1   force =    -0.00000000   -0.00000000   -0.00000000
     atom    4 type  3   force =    -2.64182780   -0.00000000   -0.00000000
     atom    5 type  3   force =    -0.00000000   -0.00000000    2.64182780
     atom    6 type  3   force =    -0.00000000   -2.64182780   -0.00000000
     atom    7 type  3   force =    -0.00000000   -0.00000000   -2.64182780
     atom    8 type  3   force =    -0.00000000    2.64182780    0.00000000
     atom    9 type  3   force =     2.64182780   -0.00000000   -0.00000000
     The core correction contribution to forces
     atom    1 type  2   force =    -0.00000000    0.00000000   -0.00000000
     atom    2 type  1   force =    -0.00000000   -0.00000000   -0.00000000
     atom    3 type  1   force =    -0.00000000    0.00000000    0.00000000
     atom    4 type  3   force =     0.00421864    0.00000000    0.00000000
     atom    5 type  3   force =    -0.00000000   -0.00000000   -0.00421864
     atom    6 type  3   force =     0.00000000    0.00421864    0.00000000
     atom    7 type  3   force =     0.00000000    0.00000000    0.00421864
     atom    8 type  3   force =     0.00000000   -0.00421864    0.00000000
     atom    9 type  3   force =    -0.00421864    0.00000000    0.00000000
     The Hubbard contrib.    to forces
     atom    1 type  2   force =     0.00000000    0.00000000    0.00000000
     atom    2 type  1   force =     0.00000000    0.00000000    0.00000000
     atom    3 type  1   force =     0.00000000    0.00000000    0.00000000
     atom    4 type  3   force =     0.00000000    0.00000000    0.00000000
     atom    5 type  3   force =     0.00000000    0.00000000    0.00000000
     atom    6 type  3   force =     0.00000000    0.00000000    0.00000000
     atom    7 type  3   force =     0.00000000    0.00000000    0.00000000
     atom    8 type  3   force =     0.00000000    0.00000000    0.00000000
     atom    9 type  3   force =     0.00000000    0.00000000    0.00000000
     The SCF correction term to forces
     atom    1 type  2   force =     0.00000000    0.00000000   -0.00000000
     atom    2 type  1   force =    -0.00000000   -0.00000000    0.00000000
     atom    3 type  1   force =     0.00000000    0.00000000   -0.00000000
     atom    4 type  3   force =    -0.00000630    0.00000000    0.00000000
     atom    5 type  3   force =    -0.00000000    0.00000000    0.00000630
     atom    6 type  3   force =     0.00000000   -0.00000630   -0.00000000
     atom    7 type  3   force =     0.00000000   -0.00000000   -0.00000630
     atom    8 type  3   force =    -0.00000000    0.00000630    0.00000000
     atom    9 type  3   force =     0.00000630   -0.00000000   -0.00000000

     Total force =     0.010347     Total SCF correction =     0.000015


     Computing stress (Cartesian axis) and pressure

          total   stress  (Ry/bohr**3)                   (kbar)     P=      -28.23
  -0.00019191   0.00000000   0.00000000          -28.23        0.00        0.00
   0.00000000  -0.00019191  -0.00000000            0.00      -28.23       -0.00
  -0.00000000  -0.00000000  -0.00019191           -0.00       -0.00      -28.23

     kinetic stress (kbar)   4155.64     -0.00      0.00
                               -0.00   4155.64     -0.00
                               -0.00      0.00   4155.64

     local   stress (kbar)  -2442.18      0.00      0.00
                                0.00  -2442.18      0.00
                                0.00      0.00  -2442.18

     nonloc. stress (kbar)    894.35      0.00      0.00
                                0.00    894.35      0.00
                                0.00      0.00    894.35

     hartree stress (kbar)   1305.12     -0.00     -0.00
                               -0.00   1305.12     -0.00
                               -0.00     -0.00   1305.12

     exc-cor stress (kbar)   1336.48     -0.00     -0.00
                               -0.00   1336.48     -0.00
                               -0.00     -0.00   1336.48

     corecor stress (kbar)  -2464.28      0.00     -0.00
                                0.00  -2464.28      0.00
                               -0.00      0.00  -2464.28

     ewald   stress (kbar)  -2813.36     -0.00      0.00
                               -0.00  -2813.36     -0.00
                                0.00     -0.00  -2813.36

     hubbard stress (kbar)      0.00      0.00      0.00
                                0.00      0.00      0.00
                                0.00      0.00      0.00

     DFT-D   stress (kbar)      0.00      0.00      0.00
                                0.00      0.00      0.00
                                0.00      0.00      0.00

     XDM     stress (kbar)      0.00      0.00      0.00
                                0.00      0.00      0.00
                                0.00      0.00      0.00

     dft-nl  stress (kbar)      0.00      0.00      0.00
                                0.00      0.00      0.00
                                0.00      0.00      0.00

     TS-vdW  stress (kbar)      0.00      0.00      0.00
                                0.00      0.00      0.00
                                0.00      0.00      0.00

     MDB     stress (kbar)      0.00      0.00      0.00
                                0.00      0.00      0.00
                                0.00      0.00      0.00

     3D-RISM stress (kbar)      0.00      0.00      0.00
                                0.00      0.00      0.00
                                0.00      0.00      0.00


     Writing all to output data dir ./out/aiida.save/
 
     init_run     :     17.78s CPU      2.92s WALL (       1 calls)
     electrons    :    293.19s CPU    142.12s WALL (       1 calls)
     forces       :      1.84s CPU      0.89s WALL (       1 calls)
     stress       :      4.81s CPU      1.66s WALL (       1 calls)

     Called by init_run:
     wfcinit      :      0.07s CPU      0.07s WALL (       1 calls)
                                        0.07s GPU  (       1 calls)
     potinit      :      4.96s CPU      0.69s WALL (       1 calls)
     hinit0       :      7.40s CPU      1.23s WALL (       1 calls)

     Called by electrons:
     c_bands      :    138.46s CPU    113.15s WALL (      39 calls)
     sum_band     :     14.90s CPU     15.73s WALL (      39 calls)
     v_of_rho     :     28.75s CPU      2.72s WALL (      39 calls)
     v_h          :      4.41s CPU      0.39s WALL (      39 calls)
     v_xc         :     25.05s CPU      2.45s WALL (      41 calls)
     newd         :     38.70s CPU      3.88s WALL (      39 calls)
                                        3.88s GPU  (      39 calls)
     PAW_pot      :     37.31s CPU      3.49s WALL (      39 calls)
     mix_rho      :     28.30s CPU      2.80s WALL (      39 calls)

     Called by c_bands:
     init_us_2    :      4.81s CPU      4.33s WALL (    3200 calls)
     init_us_2:gp :      4.73s CPU      4.27s WALL (    3200 calls)
     cegterg      :    123.84s CPU    101.70s WALL (    1712 calls)

     Called by sum_band:
     sum_band:wei :      0.10s CPU      0.10s WALL (      39 calls)
                                        0.10s GPU  (      39 calls)
     sum_band:loo :     10.35s CPU     11.07s WALL (      39 calls)
                                       11.07s GPU  (      39 calls)
     sum_band:buf :      2.90s CPU      3.01s WALL (    1560 calls)
                                        3.00s GPU  (    1560 calls)
     sum_band:ini :      1.66s CPU      1.86s WALL (    1560 calls)
                                        1.85s GPU  (    1560 calls)
     sum_band:cal :      0.05s CPU      0.69s WALL (    1560 calls)
                                        0.32s GPU  (    1560 calls)
     sum_band:bec :      0.39s CPU      0.42s WALL (    1560 calls)
                                        0.41s GPU  (    1560 calls)
     addusdens    :      2.60s CPU      2.69s WALL (      39 calls)
                                        2.69s GPU  (      39 calls)
     addusd:skk   :      0.02s CPU      0.02s WALL (     117 calls)
                                        0.02s GPU  (     117 calls)

     Called by *egterg:
     cdiaghg      :     36.48s CPU     31.84s WALL (   14327 calls)
                                       31.74s GPU  (   14327 calls)
     cegterg:over :      4.01s CPU      3.29s WALL (   12695 calls)
     cegterg:upda :      4.45s CPU      3.88s WALL (   12695 calls)
     cegterg:last :      1.65s CPU      1.51s WALL (    5711 calls)
     h_psi        :     65.99s CPU     52.37s WALL (   14407 calls)
                                       52.26s GPU  (   14407 calls)
     s_psi        :      2.18s CPU      3.55s WALL (   14407 calls)
                                        3.32s GPU  (   14407 calls)
     g_psi        :      0.12s CPU      0.43s WALL (   12695 calls)
                                        0.35s GPU  (   12695 calls)

     Called by h_psi:
     h_psi:calbec :      0.67s CPU      2.82s WALL (   14407 calls)
                                        2.73s GPU  (   14407 calls)
     vloc_psi     :     54.64s CPU     43.69s WALL (   14407 calls)
                                       43.60s GPU  (   14407 calls)
     add_vuspsi   :      4.06s CPU      4.75s WALL (   14407 calls)
                                        4.66s GPU  (   14407 calls)

     General routines
     calbec       :      0.54s CPU      0.43s WALL (   16167 calls)
     fft          :      2.41s CPU      0.47s WALL (    1015 calls)
                                        0.38s GPU  (     937 calls)
     ffts         :      0.05s CPU      0.04s WALL (     156 calls)
                                        0.01s GPU  (      78 calls)
     fftw         :      1.12s CPU     33.17s WALL (   40224 calls)
                                       32.90s GPU  (   40224 calls)
     interpolate  :      4.63s CPU      0.41s WALL (      78 calls)
     davcio       :      0.03s CPU      0.23s WALL (      40 calls)
 
     Parallel routines

     PAW routines
     PAW_pot      :     37.31s CPU      3.49s WALL (      39 calls)
     PAW_symme    :      0.04s CPU      0.01s WALL (      77 calls)
 
     PWSCF        :   5m24.95s CPU   2m29.21s WALL

 
   This run was terminated on:  17:54: 2  23Oct2023            

=------------------------------------------------------------------------------=
   JOB DONE.
=------------------------------------------------------------------------------=
