
     Program PWSCF v.7.2 starts on 22Oct2023 at 18: 5:23 

     This program is part of the open-source Quantum ESPRESSO suite
     for quantum simulation of materials; please cite
         "P. Giannozzi et al., J. Phys.:Condens. Matter 21 395502 (2009);
         "P. Giannozzi et al., J. Phys.:Condens. Matter 29 465901 (2017);
         "P. Giannozzi et al., J. Chem. Phys. 152 154105 (2020);
          URL http://www.quantum-espresso.org", 
     in publications or presentations arising from this work. More details at
     http://www.quantum-espresso.org/quote

     Parallel version (MPI & OpenMP), running on      12 processor cores
     Number of MPI processes:                 1
     Threads/MPI process:                    12

     MPI processes distributed on     1 nodes
     60379 MiB available memory on the printing compute node when the environment starts
 
     Reading input from aiida.in

     Current dimensions of program PWSCF are:
     Max number of different atomic species (ntypx) = 10
     Max number of k-points (npk) =  40000
     Max angular momentum in pseudopotentials (lmaxx) =  4
     file K.pbesol-spn-kjpaw_psl.1.0.0.UPF: wavefunction(s)  3S renormalized
     Message from routine setup:
     using ibrav=0 with symmetry is DISCOURAGED, use correct ibrav instead
 
     Subspace diagonalization in iterative solution of the eigenvalue problem:
     a serial algorithm will be used

 
     G-vector sticks info
     --------------------
     sticks:   dense  smooth     PW     G-vecs:    dense   smooth      PW
     Sum        4753    2383    673               216735    76753   11575
 
     Using Slab Decomposition
 


     bravais-lattice index     =            0
     lattice parameter (alat)  =      11.9954  a.u.
     unit-cell volume          =    1220.4789 (a.u.)^3
     number of atoms/cell      =           10
     number of atomic types    =            4
     number of electrons       =        91.00
     number of Kohn-Sham states=           55
     kinetic-energy cutoff     =      60.0000  Ry
     charge density cutoff     =     480.0000  Ry
     scf convergence threshold =      2.0E-09
     mixing beta               =       0.4000
     number of iterations used =            8  plain     mixing
     Exchange-correlation= SLA  PW   PSX  PSC
                           (   1   4  10   8   0   0   0)

     GPU acceleration is ACTIVE.


     GPU used by master process:

        Device Number: 0
        Device name: Tesla P100-PCIE-16GB
        Compute capability : 60
        Ratio of single to double precision performance  : 2
        Memory Clock Rate (KHz): 715000
        Memory Bus Width (bits): 4096
        Peak Memory Bandwidth (GB/s): 732.16

     celldm(1)=  11.995410  celldm(2)=   0.000000  celldm(3)=   0.000000
     celldm(4)=   0.000000  celldm(5)=   0.000000  celldm(6)=   0.000000

     crystal axes: (cart. coord. in units of alat)
               a(1) = (   0.000000   0.707107   0.707107 )  
               a(2) = (   0.707107   0.000000   0.707107 )  
               a(3) = (   0.707107   0.707107   0.000000 )  

     reciprocal axes: (cart. coord. in units 2 pi/alat)
               b(1) = ( -0.707107  0.707107  0.707107 )  
               b(2) = (  0.707107 -0.707107  0.707107 )  
               b(3) = (  0.707107  0.707107 -0.707107 )  


     PseudoPot. # 1 for F  read from file:
     ./pseudo/f_pbesol_v1.4.uspp.F.UPF
     MD5 check sum: d2815ecb49b17b99c5724ffd2f9bbd8d
     Pseudo is Ultrasoft, Zval =  7.0
     Generated by new atomic code, or converted to UPF format
     Using radial grid of  799 points,  4 beta functions with: 
                l(1) =   0
                l(2) =   0
                l(3) =   1
                l(4) =   1
     Q(r) pseudized with  8 coefficients,  rinner =    0.950   0.950   0.950


     PseudoPot. # 2 for K  read from file:
     ./pseudo/K.pbesol-spn-kjpaw_psl.1.0.0.UPF
     MD5 check sum: b302bede38c4f5fe00638ceae66f121b
     Pseudo is Projector augmented-wave + core cor, Zval =  9.0
     Generated using "atomic" code by A. Dal Corso  v.6.0 svn rev. 13079
     Shape of augmentation charge: PSQ
     Using radial grid of 1165 points,  6 beta functions with: 
                l(1) =   0
                l(2) =   0
                l(3) =   1
                l(4) =   1
                l(5) =   2
                l(6) =   2
     Q(r) pseudized with 0 coefficients 


     PseudoPot. # 3 for Mo read from file:
     ./pseudo/Mo_ONCV_PBEsol-1.0.upf
     MD5 check sum: 5193ba6a20874d27c2ef80314d1b3445
     Pseudo is Norm-conserving, Zval = 14.0
     Generated using ONCVPSP code by D. R. Hamann
     Using radial grid of 1508 points,  6 beta functions with: 
                l(1) =   0
                l(2) =   0
                l(3) =   1
                l(4) =   1
                l(5) =   2
                l(6) =   2

     PseudoPot. # 4 for Tl read from file:
     ./pseudo/tl_pbesol_v1.2.uspp.F.UPF
     MD5 check sum: ce331abb17083e2469b5604a64700343
     Pseudo is Ultrasoft + core correction, Zval = 13.0
     Generated by new atomic code, or converted to UPF format
     Using radial grid of  899 points,  6 beta functions with: 
                l(1) =   0
                l(2) =   0
                l(3) =   1
                l(4) =   1
                l(5) =   2
                l(6) =   2
     Q(r) pseudized with  6 coefficients,  rinner =    1.100   1.100   1.100
                                                       1.100   1.100

     atomic species   valence    mass     pseudopotential
        F              7.00    18.99840     F ( 1.00)
        K              9.00    39.09830     K ( 1.00)
        Mo            14.00    95.96000     Mo( 1.00)
        Tl            13.00   204.38330     Tl( 1.00)

     Starting magnetic structure 
     atomic species   magnetization
        F            0.100
        K            0.100
        Mo           0.357
        Tl           0.100

     48 Sym. Ops., with inversion, found


                                    s                        frac. trans.

      isym =  1     identity                                     

 cryst.   s( 1) = (     1          0          0      )
                  (     0          1          0      )
                  (     0          0          1      )

 cart.    s( 1) = (  1.0000000 -0.0000000  0.0000000 )
                  ( -0.0000000  1.0000000  0.0000000 )
                  ( -0.0000000  0.0000000  1.0000000 )


      isym =  2     180 deg rotation - cart. axis [0,0,1]        

 cryst.   s( 2) = (     0          1         -1      )
                  (     1          0         -1      )
                  (     0          0         -1      )

 cart.    s( 2) = ( -1.0000000  0.0000000  0.0000000 )
                  (  0.0000000 -1.0000000  0.0000000 )
                  (  0.0000000 -0.0000000  1.0000000 )


      isym =  3     180 deg rotation - cart. axis [0,1,0]        

 cryst.   s( 3) = (     0         -1          1      )
                  (     0         -1          0      )
                  (     1         -1          0      )

 cart.    s( 3) = ( -1.0000000 -0.0000000 -0.0000000 )
                  (  0.0000000  1.0000000 -0.0000000 )
                  (  0.0000000  0.0000000 -1.0000000 )


      isym =  4     180 deg rotation - cart. axis [1,0,0]        

 cryst.   s( 4) = (    -1          0          0      )
                  (    -1          0          1      )
                  (    -1          1          0      )

 cart.    s( 4) = (  1.0000000  0.0000000 -0.0000000 )
                  ( -0.0000000 -1.0000000 -0.0000000 )
                  ( -0.0000000 -0.0000000 -1.0000000 )


      isym =  5     180 deg rotation - cart. axis [1,1,0]        

 cryst.   s( 5) = (    -1          0          1      )
                  (     0         -1          1      )
                  (     0          0          1      )

 cart.    s( 5) = ( -0.0000000  1.0000000 -0.0000000 )
                  (  1.0000000 -0.0000000 -0.0000000 )
                  (  0.0000000 -0.0000000 -1.0000000 )


      isym =  6     180 deg rotation - cart. axis [1,-1,0]       

 cryst.   s( 6) = (     0         -1          0      )
                  (    -1          0          0      )
                  (     0          0         -1      )

 cart.    s( 6) = (  0.0000000 -1.0000000 -0.0000000 )
                  ( -1.0000000  0.0000000 -0.0000000 )
                  ( -0.0000000  0.0000000 -1.0000000 )


      isym =  7      90 deg rotation - cart. axis [0,0,-1]       

 cryst.   s( 7) = (     0          1          0      )
                  (     0          1         -1      )
                  (    -1          1          0      )

 cart.    s( 7) = (  0.0000000  1.0000000  0.0000000 )
                  ( -1.0000000 -0.0000000  0.0000000 )
                  ( -0.0000000 -0.0000000  1.0000000 )


      isym =  8      90 deg rotation - cart. axis [0,0,1]        

 cryst.   s( 8) = (     1          0         -1      )
                  (     1          0          0      )
                  (     1         -1          0      )

 cart.    s( 8) = ( -0.0000000 -1.0000000  0.0000000 )
                  (  1.0000000  0.0000000  0.0000000 )
                  (  0.0000000  0.0000000  1.0000000 )


      isym =  9     180 deg rotation - cart. axis [1,0,1]        

 cryst.   s( 9) = (    -1          1          0      )
                  (     0          1          0      )
                  (     0          1         -1      )

 cart.    s( 9) = (  0.0000000  0.0000000  1.0000000 )
                  (  0.0000000 -1.0000000 -0.0000000 )
                  (  1.0000000 -0.0000000 -0.0000000 )


      isym = 10     180 deg rotation - cart. axis [-1,0,1]       

 cryst.   s(10) = (     0          0         -1      )
                  (     0         -1          0      )
                  (    -1          0          0      )

 cart.    s(10) = ( -0.0000000  0.0000000 -1.0000000 )
                  ( -0.0000000 -1.0000000  0.0000000 )
                  ( -1.0000000 -0.0000000  0.0000000 )


      isym = 11      90 deg rotation - cart. axis [0,1,0]        

 cryst.   s(11) = (     0          0          1      )
                  (    -1          0          1      )
                  (     0         -1          1      )

 cart.    s(11) = ( -0.0000000 -0.0000000  1.0000000 )
                  ( -0.0000000  1.0000000 -0.0000000 )
                  ( -1.0000000  0.0000000 -0.0000000 )


      isym = 12      90 deg rotation - cart. axis [0,-1,0]       

 cryst.   s(12) = (     1         -1          0      )
                  (     1          0         -1      )
                  (     1          0          0      )

 cart.    s(12) = (  0.0000000 -0.0000000 -1.0000000 )
                  (  0.0000000  1.0000000  0.0000000 )
                  (  1.0000000  0.0000000  0.0000000 )


      isym = 13     180 deg rotation - cart. axis [0,1,1]        

 cryst.   s(13) = (     1          0          0      )
                  (     1         -1          0      )
                  (     1          0         -1      )

 cart.    s(13) = ( -1.0000000  0.0000000 -0.0000000 )
                  (  0.0000000  0.0000000  1.0000000 )
                  (  0.0000000  1.0000000  0.0000000 )


      isym = 14     180 deg rotation - cart. axis [0,1,-1]       

 cryst.   s(14) = (    -1          0          0      )
                  (     0          0         -1      )
                  (     0         -1          0      )

 cart.    s(14) = ( -1.0000000 -0.0000000  0.0000000 )
                  (  0.0000000 -0.0000000 -1.0000000 )
                  (  0.0000000 -1.0000000 -0.0000000 )


      isym = 15      90 deg rotation - cart. axis [-1,0,0]       

 cryst.   s(15) = (     0         -1          1      )
                  (     0          0          1      )
                  (    -1          0          1      )

 cart.    s(15) = (  1.0000000 -0.0000000 -0.0000000 )
                  ( -0.0000000 -0.0000000  1.0000000 )
                  ( -0.0000000 -1.0000000  0.0000000 )


      isym = 16      90 deg rotation - cart. axis [1,0,0]        

 cryst.   s(16) = (     0          1         -1      )
                  (    -1          1          0      )
                  (     0          1          0      )

 cart.    s(16) = (  1.0000000  0.0000000  0.0000000 )
                  ( -0.0000000  0.0000000 -1.0000000 )
                  ( -0.0000000  1.0000000 -0.0000000 )


      isym = 17     120 deg rotation - cart. axis [-1,-1,-1]     

 cryst.   s(17) = (     0          0          1      )
                  (     1          0          0      )
                  (     0          1          0      )

 cart.    s(17) = (  0.0000000  1.0000000 -0.0000000 )
                  (  0.0000000 -0.0000000  1.0000000 )
                  (  1.0000000 -0.0000000  0.0000000 )


      isym = 18     120 deg rotation - cart. axis [-1,1,1]       

 cryst.   s(18) = (     1         -1          0      )
                  (     0         -1          1      )
                  (     0         -1          0      )

 cart.    s(18) = ( -0.0000000 -1.0000000 -0.0000000 )
                  ( -0.0000000  0.0000000  1.0000000 )
                  ( -1.0000000  0.0000000  0.0000000 )


      isym = 19     120 deg rotation - cart. axis [1,1,-1]       

 cryst.   s(19) = (    -1          1          0      )
                  (    -1          0          0      )
                  (    -1          0          1      )

 cart.    s(19) = ( -0.0000000  1.0000000  0.0000000 )
                  ( -0.0000000 -0.0000000 -1.0000000 )
                  ( -1.0000000 -0.0000000 -0.0000000 )


      isym = 20     120 deg rotation - cart. axis [1,-1,1]       

 cryst.   s(20) = (     0          0         -1      )
                  (     0          1         -1      )
                  (     1          0         -1      )

 cart.    s(20) = (  0.0000000 -1.0000000  0.0000000 )
                  (  0.0000000  0.0000000 -1.0000000 )
                  (  1.0000000  0.0000000 -0.0000000 )


      isym = 21     120 deg rotation - cart. axis [1,1,1]        

 cryst.   s(21) = (     0          1          0      )
                  (     0          0          1      )
                  (     1          0          0      )

 cart.    s(21) = ( -0.0000000  0.0000000  1.0000000 )
                  (  1.0000000  0.0000000 -0.0000000 )
                  (  0.0000000  1.0000000 -0.0000000 )


      isym = 22     120 deg rotation - cart. axis [-1,1,-1]      

 cryst.   s(22) = (    -1          0          1      )
                  (    -1          1          0      )
                  (    -1          0          0      )

 cart.    s(22) = (  0.0000000 -0.0000000  1.0000000 )
                  ( -1.0000000 -0.0000000 -0.0000000 )
                  ( -0.0000000 -1.0000000 -0.0000000 )


      isym = 23     120 deg rotation - cart. axis [1,-1,-1]      

 cryst.   s(23) = (     1          0         -1      )
                  (     0          0         -1      )
                  (     0          1         -1      )

 cart.    s(23) = (  0.0000000  0.0000000 -1.0000000 )
                  ( -1.0000000  0.0000000  0.0000000 )
                  ( -0.0000000  1.0000000  0.0000000 )


      isym = 24     120 deg rotation - cart. axis [-1,-1,1]      

 cryst.   s(24) = (     0         -1          0      )
                  (     1         -1          0      )
                  (     0         -1          1      )

 cart.    s(24) = ( -0.0000000 -0.0000000 -1.0000000 )
                  (  1.0000000 -0.0000000  0.0000000 )
                  (  0.0000000 -1.0000000  0.0000000 )


      isym = 25     inversion                                    

 cryst.   s(25) = (    -1          0          0      )
                  (     0         -1          0      )
                  (     0          0         -1      )

 cart.    s(25) = ( -1.0000000  0.0000000 -0.0000000 )
                  (  0.0000000 -1.0000000 -0.0000000 )
                  (  0.0000000 -0.0000000 -1.0000000 )


      isym = 26     inv. 180 deg rotation - cart. axis [0,0,1]   

 cryst.   s(26) = (     0         -1          1      )
                  (    -1          0          1      )
                  (     0          0          1      )

 cart.    s(26) = (  1.0000000 -0.0000000 -0.0000000 )
                  ( -0.0000000  1.0000000 -0.0000000 )
                  ( -0.0000000  0.0000000 -1.0000000 )


      isym = 27     inv. 180 deg rotation - cart. axis [0,1,0]   

 cryst.   s(27) = (     0          1         -1      )
                  (     0          1          0      )
                  (    -1          1          0      )

 cart.    s(27) = (  1.0000000  0.0000000  0.0000000 )
                  ( -0.0000000 -1.0000000  0.0000000 )
                  ( -0.0000000 -0.0000000  1.0000000 )


      isym = 28     inv. 180 deg rotation - cart. axis [1,0,0]   

 cryst.   s(28) = (     1          0          0      )
                  (     1          0         -1      )
                  (     1         -1          0      )

 cart.    s(28) = ( -1.0000000 -0.0000000  0.0000000 )
                  (  0.0000000  1.0000000  0.0000000 )
                  (  0.0000000  0.0000000  1.0000000 )


      isym = 29     inv. 180 deg rotation - cart. axis [1,1,0]   

 cryst.   s(29) = (     1          0         -1      )
                  (     0          1         -1      )
                  (     0          0         -1      )

 cart.    s(29) = (  0.0000000 -1.0000000  0.0000000 )
                  ( -1.0000000  0.0000000  0.0000000 )
                  ( -0.0000000  0.0000000  1.0000000 )


      isym = 30     inv. 180 deg rotation - cart. axis [1,-1,0]  

 cryst.   s(30) = (     0          1          0      )
                  (     1          0          0      )
                  (     0          0          1      )

 cart.    s(30) = ( -0.0000000  1.0000000  0.0000000 )
                  (  1.0000000 -0.0000000  0.0000000 )
                  (  0.0000000 -0.0000000  1.0000000 )


      isym = 31     inv.  90 deg rotation - cart. axis [0,0,-1]  

 cryst.   s(31) = (     0         -1          0      )
                  (     0         -1          1      )
                  (     1         -1          0      )

 cart.    s(31) = ( -0.0000000 -1.0000000 -0.0000000 )
                  (  1.0000000  0.0000000 -0.0000000 )
                  (  0.0000000  0.0000000 -1.0000000 )


      isym = 32     inv.  90 deg rotation - cart. axis [0,0,1]   

 cryst.   s(32) = (    -1          0          1      )
                  (    -1          0          0      )
                  (    -1          1          0      )

 cart.    s(32) = (  0.0000000  1.0000000 -0.0000000 )
                  ( -1.0000000 -0.0000000 -0.0000000 )
                  ( -0.0000000 -0.0000000 -1.0000000 )


      isym = 33     inv. 180 deg rotation - cart. axis [1,0,1]   

 cryst.   s(33) = (     1         -1          0      )
                  (     0         -1          0      )
                  (     0         -1          1      )

 cart.    s(33) = ( -0.0000000 -0.0000000 -1.0000000 )
                  ( -0.0000000  1.0000000  0.0000000 )
                  ( -1.0000000  0.0000000  0.0000000 )


      isym = 34     inv. 180 deg rotation - cart. axis [-1,0,1]  

 cryst.   s(34) = (     0          0          1      )
                  (     0          1          0      )
                  (     1          0          0      )

 cart.    s(34) = (  0.0000000 -0.0000000  1.0000000 )
                  (  0.0000000  1.0000000 -0.0000000 )
                  (  1.0000000  0.0000000 -0.0000000 )


      isym = 35     inv.  90 deg rotation - cart. axis [0,1,0]   

 cryst.   s(35) = (     0          0         -1      )
                  (     1          0         -1      )
                  (     0          1         -1      )

 cart.    s(35) = (  0.0000000  0.0000000 -1.0000000 )
                  (  0.0000000 -1.0000000  0.0000000 )
                  (  1.0000000 -0.0000000  0.0000000 )


      isym = 36     inv.  90 deg rotation - cart. axis [0,-1,0]  

 cryst.   s(36) = (    -1          1          0      )
                  (    -1          0          1      )
                  (    -1          0          0      )

 cart.    s(36) = ( -0.0000000  0.0000000  1.0000000 )
                  ( -0.0000000 -1.0000000 -0.0000000 )
                  ( -1.0000000 -0.0000000 -0.0000000 )


      isym = 37     inv. 180 deg rotation - cart. axis [0,1,1]   

 cryst.   s(37) = (    -1          0          0      )
                  (    -1          1          0      )
                  (    -1          0          1      )

 cart.    s(37) = (  1.0000000 -0.0000000  0.0000000 )
                  ( -0.0000000 -0.0000000 -1.0000000 )
                  ( -0.0000000 -1.0000000 -0.0000000 )


      isym = 38     inv. 180 deg rotation - cart. axis [0,1,-1]  

 cryst.   s(38) = (     1          0          0      )
                  (     0          0          1      )
                  (     0          1          0      )

 cart.    s(38) = (  1.0000000  0.0000000 -0.0000000 )
                  ( -0.0000000  0.0000000  1.0000000 )
                  ( -0.0000000  1.0000000  0.0000000 )


      isym = 39     inv.  90 deg rotation - cart. axis [-1,0,0]  

 cryst.   s(39) = (     0          1         -1      )
                  (     0          0         -1      )
                  (     1          0         -1      )

 cart.    s(39) = ( -1.0000000  0.0000000  0.0000000 )
                  (  0.0000000  0.0000000 -1.0000000 )
                  (  0.0000000  1.0000000 -0.0000000 )


      isym = 40     inv.  90 deg rotation - cart. axis [1,0,0]   

 cryst.   s(40) = (     0         -1          1      )
                  (     1         -1          0      )
                  (     0         -1          0      )

 cart.    s(40) = ( -1.0000000 -0.0000000 -0.0000000 )
                  (  0.0000000 -0.0000000  1.0000000 )
                  (  0.0000000 -1.0000000  0.0000000 )


      isym = 41     inv. 120 deg rotation - cart. axis [-1,-1,-1]

 cryst.   s(41) = (     0          0         -1      )
                  (    -1          0          0      )
                  (     0         -1          0      )

 cart.    s(41) = ( -0.0000000 -1.0000000  0.0000000 )
                  ( -0.0000000  0.0000000 -1.0000000 )
                  ( -1.0000000  0.0000000 -0.0000000 )


      isym = 42     inv. 120 deg rotation - cart. axis [-1,1,1]  

 cryst.   s(42) = (    -1          1          0      )
                  (     0          1         -1      )
                  (     0          1          0      )

 cart.    s(42) = (  0.0000000  1.0000000  0.0000000 )
                  (  0.0000000 -0.0000000 -1.0000000 )
                  (  1.0000000 -0.0000000 -0.0000000 )


      isym = 43     inv. 120 deg rotation - cart. axis [1,1,-1]  

 cryst.   s(43) = (     1         -1          0      )
                  (     1          0          0      )
                  (     1          0         -1      )

 cart.    s(43) = (  0.0000000 -1.0000000 -0.0000000 )
                  (  0.0000000  0.0000000  1.0000000 )
                  (  1.0000000  0.0000000  0.0000000 )


      isym = 44     inv. 120 deg rotation - cart. axis [1,-1,1]  

 cryst.   s(44) = (     0          0          1      )
                  (     0         -1          1      )
                  (    -1          0          1      )

 cart.    s(44) = ( -0.0000000  1.0000000 -0.0000000 )
                  ( -0.0000000 -0.0000000  1.0000000 )
                  ( -1.0000000 -0.0000000  0.0000000 )


      isym = 45     inv. 120 deg rotation - cart. axis [1,1,1]   

 cryst.   s(45) = (     0         -1          0      )
                  (     0          0         -1      )
                  (    -1          0          0      )

 cart.    s(45) = (  0.0000000 -0.0000000 -1.0000000 )
                  ( -1.0000000 -0.0000000  0.0000000 )
                  ( -0.0000000 -1.0000000  0.0000000 )


      isym = 46     inv. 120 deg rotation - cart. axis [-1,1,-1] 

 cryst.   s(46) = (     1          0         -1      )
                  (     1         -1          0      )
                  (     1          0          0      )

 cart.    s(46) = ( -0.0000000  0.0000000 -1.0000000 )
                  (  1.0000000  0.0000000  0.0000000 )
                  (  0.0000000  1.0000000  0.0000000 )


      isym = 47     inv. 120 deg rotation - cart. axis [1,-1,-1] 

 cryst.   s(47) = (    -1          0          1      )
                  (     0          0          1      )
                  (     0         -1          1      )

 cart.    s(47) = ( -0.0000000 -0.0000000  1.0000000 )
                  (  1.0000000 -0.0000000 -0.0000000 )
                  (  0.0000000 -1.0000000 -0.0000000 )


      isym = 48     inv. 120 deg rotation - cart. axis [-1,-1,1] 

 cryst.   s(48) = (     0          1          0      )
                  (    -1          1          0      )
                  (     0          1         -1      )

 cart.    s(48) = (  0.0000000  0.0000000  1.0000000 )
                  ( -1.0000000  0.0000000 -0.0000000 )
                  ( -0.0000000  1.0000000 -0.0000000 )


   Cartesian axes

     site n.     atom                  positions (alat units)
         1           K   tau(   1) = (   0.7071068   0.0000000   0.0000000  )
         2           Tl  tau(   2) = (   0.3535534   0.3535534   1.0606602  )
         3           Tl  tau(   3) = (   0.3535534   1.0606602   1.0606602  )
         4           Mo  tau(   4) = (   0.0000000   0.0000000   0.0000000  )
         5           F   tau(   5) = (   1.0931871  -0.0000000  -0.0000000  )
         6           F   tau(   6) = (   0.7071068   0.3860803  -0.0000000  )
         7           F   tau(   7) = (   0.0000000   0.0000000   1.0931871  )
         8           F   tau(   8) = (   0.7071068   0.0000000   1.0281333  )
         9           F   tau(   9) = (   0.7071068   1.0281333   0.0000000  )
        10           F   tau(  10) = (   0.3210265  -0.0000000  -0.0000000  )

   Crystallographic axes

     site n.     atom                  positions (cryst. coord.)
         1           K   tau(   1) = ( -0.5000000  0.5000000  0.5000000  )
         2           Tl  tau(   2) = (  0.7500000  0.7500000 -0.2500000  )
         3           Tl  tau(   3) = (  1.2500000  0.2500000  0.2500000  )
         4           Mo  tau(   4) = (  0.0000000  0.0000000  0.0000000  )
         5           F   tau(   5) = ( -0.7730000  0.7730000  0.7730000  )
         6           F   tau(   6) = ( -0.2270000  0.2270000  0.7730000  )
         7           F   tau(   7) = (  0.7730000  0.7730000 -0.7730000  )
         8           F   tau(   8) = (  0.2270000  1.2270000 -0.2270000  )
         9           F   tau(   9) = (  0.2270000 -0.2270000  1.2270000  )
        10           F   tau(  10) = ( -0.2270000  0.2270000  0.2270000  )

     number of k points=    35  Marzari-Vanderbilt smearing, width (Ry)=  0.0100
                       cart. coord. in units 2pi/alat
        k(    1) = (   0.0000000   0.0000000   0.0000000), wk =   0.0013717
        k(    2) = (   0.0785674   0.0785674  -0.0785674), wk =   0.0109739
        k(    3) = (   0.1571348   0.1571348  -0.1571348), wk =   0.0109739
        k(    4) = (   0.2357023   0.2357023  -0.2357023), wk =   0.0109739
        k(    5) = (   0.3142697   0.3142697  -0.3142697), wk =   0.0109739
        k(    6) = (   0.1571348   0.0000000  -0.0000000), wk =   0.0082305
        k(    7) = (   0.2357023   0.0785674  -0.0785674), wk =   0.0329218
        k(    8) = (   0.3142697   0.1571348  -0.1571348), wk =   0.0329218
        k(    9) = (   0.3928371   0.2357023  -0.2357023), wk =   0.0329218
        k(   10) = (  -0.2357023  -0.3928371   0.3928371), wk =   0.0329218
        k(   11) = (  -0.1571348  -0.3142697   0.3142697), wk =   0.0329218
        k(   12) = (  -0.0785674  -0.2357023   0.2357023), wk =   0.0329218
        k(   13) = (  -0.0000000  -0.1571348   0.1571348), wk =   0.0164609
        k(   14) = (   0.3142697   0.0000000  -0.0000000), wk =   0.0082305
        k(   15) = (   0.3928371   0.0785674  -0.0785674), wk =   0.0329218
        k(   16) = (   0.4714045   0.1571348  -0.1571348), wk =   0.0329218
        k(   17) = (  -0.1571348  -0.4714045   0.4714045), wk =   0.0329218
        k(   18) = (  -0.0785674  -0.3928371   0.3928371), wk =   0.0329218
        k(   19) = (  -0.0000000  -0.3142697   0.3142697), wk =   0.0164609
        k(   20) = (   0.4714045   0.0000000  -0.0000000), wk =   0.0082305
        k(   21) = (   0.5499719   0.0785674  -0.0785674), wk =   0.0329218
        k(   22) = (  -0.0785674  -0.5499719   0.5499719), wk =   0.0329218
        k(   23) = (  -0.0000000  -0.4714045   0.4714045), wk =   0.0164609
        k(   24) = (   0.6285394   0.0000000  -0.0000000), wk =   0.0082305
        k(   25) = (  -0.0000000  -0.6285394   0.6285394), wk =   0.0164609
        k(   26) = (   0.3142697   0.1571348  -0.0000000), wk =   0.0329218
        k(   27) = (   0.3928371   0.2357023  -0.0785674), wk =   0.0658436
        k(   28) = (  -0.2357023  -0.3928371   0.5499719), wk =   0.0658436
        k(   29) = (   0.4714045   0.1571348  -0.0000000), wk =   0.0329218
        k(   30) = (  -0.1571348  -0.4714045   0.6285394), wk =   0.0658436
        k(   31) = (  -0.0785674  -0.3928371   0.5499719), wk =   0.0658436
        k(   32) = (   0.0000000  -0.3142697   0.4714045), wk =   0.0329218
        k(   33) = (  -0.0785674  -0.5499719   0.7071068), wk =   0.0329218
        k(   34) = (  -0.0000000  -0.4714045   0.6285394), wk =   0.0329218
        k(   35) = (  -0.0785674  -0.3928371   0.7071068), wk =   0.0329218

                       cryst. coord.
        k(    1) = (   0.0000000   0.0000000   0.0000000), wk =   0.0013717
        k(    2) = (  -0.0000000  -0.0000000   0.1111111), wk =   0.0109739
        k(    3) = (  -0.0000000  -0.0000000   0.2222222), wk =   0.0109739
        k(    4) = (   0.0000000   0.0000000   0.3333333), wk =   0.0109739
        k(    5) = (  -0.0000000  -0.0000000   0.4444444), wk =   0.0109739
        k(    6) = (  -0.0000000   0.1111111   0.1111111), wk =   0.0082305
        k(    7) = (   0.0000000   0.1111111   0.2222222), wk =   0.0329218
        k(    8) = (   0.0000000   0.1111111   0.3333333), wk =   0.0329218
        k(    9) = (   0.0000000   0.1111111   0.4444444), wk =   0.0329218
        k(   10) = (   0.0000000   0.1111111  -0.4444444), wk =   0.0329218
        k(   11) = (  -0.0000000   0.1111111  -0.3333333), wk =   0.0329218
        k(   12) = (  -0.0000000   0.1111111  -0.2222222), wk =   0.0329218
        k(   13) = (   0.0000000   0.1111111  -0.1111111), wk =   0.0164609
        k(   14) = (  -0.0000000   0.2222222   0.2222222), wk =   0.0082305
        k(   15) = (   0.0000000   0.2222222   0.3333333), wk =   0.0329218
        k(   16) = (   0.0000000   0.2222222   0.4444444), wk =   0.0329218
        k(   17) = (  -0.0000000   0.2222222  -0.4444444), wk =   0.0329218
        k(   18) = (   0.0000000   0.2222222  -0.3333333), wk =   0.0329218
        k(   19) = (   0.0000000   0.2222222  -0.2222222), wk =   0.0164609
        k(   20) = (  -0.0000000   0.3333333   0.3333333), wk =   0.0082305
        k(   21) = (   0.0000000   0.3333333   0.4444444), wk =   0.0329218
        k(   22) = (   0.0000000   0.3333333  -0.4444444), wk =   0.0329218
        k(   23) = (   0.0000000   0.3333333  -0.3333333), wk =   0.0164609
        k(   24) = (  -0.0000000   0.4444444   0.4444444), wk =   0.0082305
        k(   25) = (   0.0000000   0.4444444  -0.4444444), wk =   0.0164609
        k(   26) = (   0.1111111   0.2222222   0.3333333), wk =   0.0329218
        k(   27) = (   0.1111111   0.2222222   0.4444444), wk =   0.0658436
        k(   28) = (   0.1111111   0.2222222  -0.4444444), wk =   0.0658436
        k(   29) = (   0.1111111   0.3333333   0.4444444), wk =   0.0329218
        k(   30) = (   0.1111111   0.3333333  -0.4444444), wk =   0.0658436
        k(   31) = (   0.1111111   0.3333333  -0.3333333), wk =   0.0658436
        k(   32) = (   0.1111111   0.3333333  -0.2222222), wk =   0.0329218
        k(   33) = (   0.1111111   0.4444444  -0.4444444), wk =   0.0329218
        k(   34) = (   0.1111111   0.4444444  -0.3333333), wk =   0.0329218
        k(   35) = (   0.2222222   0.4444444  -0.3333333), wk =   0.0329218

     Dense  grid:   216735 G-vectors     FFT dimensions: (  90,  90,  90)

     Smooth grid:    76753 G-vectors     FFT dimensions: (  60,  60,  60)

     Dynamical RAM for                 wfc:       8.04 MB

     Dynamical RAM for     wfc (w. buffer):     570.77 MB

     Dynamical RAM for           str. fact:      13.23 MB

     Dynamical RAM for           local pot:       0.00 MB

     Dynamical RAM for          nlocal pot:      17.54 MB

     Dynamical RAM for                qrad:       7.03 MB

     Dynamical RAM for          rho,v,vnew:      53.21 MB

     Dynamical RAM for               rhoin:      17.74 MB

     Dynamical RAM for            rho*nmix:     105.83 MB

     Dynamical RAM for           G-vectors:      12.99 MB

     Dynamical RAM for          h,s,v(r/c):       0.55 MB

     Dynamical RAM for          <psi|beta>:       0.10 MB

     Dynamical RAM for                 psi:      16.08 MB

     Dynamical RAM for                hpsi:      16.08 MB

     Dynamical RAM for                spsi:      16.08 MB

     Dynamical RAM for      wfcinit/wfcrot:      17.62 MB

     Dynamical RAM for           addusdens:     638.27 MB

     Dynamical RAM for          addusforce:     671.39 MB

     Dynamical RAM for         addusstress:     669.69 MB

     Estimated static dynamical RAM per process >     742.41 MB

     Estimated max dynamical RAM per process >       1.48 GB

     Check: negative core charge=   -0.000002
     Generating pointlists ...
     new r_m :   0.1324 (alat units)  1.5885 (a.u.) for type    1
     new r_m :   0.1593 (alat units)  1.9104 (a.u.) for type    2
     new r_m :   0.1324 (alat units)  1.5885 (a.u.) for type    3
     new r_m :   0.2067 (alat units)  2.4793 (a.u.) for type    4

     Initial potential from superposition of free atoms

     starting charge      90.9717, renormalised to      91.0000

     negative rho (up, down):  5.498E-02 4.500E-02
     Starting wfcs are   60 randomized atomic wfcs
     Checking if some PAW data can be deallocated... 

     total cpu time spent up to now is        6.8 secs

     per-process dynamical memory:  1376.7 Mb

     Self-consistent Calculation
[tb_dev] Currently allocated     5.34E+00 Mbytes, locked:    0 /  11
[tb_pin] Currently allocated     0.00E+00 Mbytes, locked:    0 /   0

     iteration #  1     ecut=    60.00 Ry     beta= 0.40
     Davidson diagonalization with overlap

---- Real-time Memory Report at c_bands before calling an iterative solver
          1620 MiB given to the printing process from OS
          1363 MiB allocation reported by mallinfo(arena+hblkhd)
         57619 MiB available memory on the node where the printing process lives
     GPU memory used/free/total (MiB): 1230 / 15050 / 16280
------------------
     ethr =  1.00E-02,  avg # of iterations =  2.0

     negative rho (up, down):  5.296E-02 4.691E-02

     total cpu time spent up to now is       10.9 secs

     total energy              =    -829.19783804 Ry
     estimated scf accuracy    <       1.48944215 Ry

     total magnetization       =     3.00 Bohr mag/cell
     absolute magnetization    =     3.33 Bohr mag/cell
[tb_dev] Currently allocated     5.34E+00 Mbytes, locked:    0 /   9
[tb_pin] Currently allocated     0.00E+00 Mbytes, locked:    0 /   0

     iteration #  2     ecut=    60.00 Ry     beta= 0.40
     Davidson diagonalization with overlap

---- Real-time Memory Report at c_bands before calling an iterative solver
          1735 MiB given to the printing process from OS
          1413 MiB allocation reported by mallinfo(arena+hblkhd)
         57572 MiB available memory on the node where the printing process lives
     GPU memory used/free/total (MiB): 2122 / 14158 / 16280
------------------
     ethr =  1.64E-03,  avg # of iterations =  2.0

     negative rho (up, down):  5.196E-02 4.781E-02

     total cpu time spent up to now is       15.5 secs

     total energy              =    -829.57268650 Ry
     estimated scf accuracy    <       0.25779579 Ry

     total magnetization       =     3.00 Bohr mag/cell
     absolute magnetization    =     3.25 Bohr mag/cell
[tb_dev] Currently allocated     5.34E+00 Mbytes, locked:    0 /   9
[tb_pin] Currently allocated     0.00E+00 Mbytes, locked:    0 /   0

     iteration #  3     ecut=    60.00 Ry     beta= 0.40
     Davidson diagonalization with overlap

---- Real-time Memory Report at c_bands before calling an iterative solver
          1805 MiB given to the printing process from OS
          1419 MiB allocation reported by mallinfo(arena+hblkhd)
         57565 MiB available memory on the node where the printing process lives
     GPU memory used/free/total (MiB): 2166 / 14114 / 16280
------------------
     ethr =  2.83E-04,  avg # of iterations =  2.0

     negative rho (up, down):  5.074E-02 4.900E-02

     total cpu time spent up to now is       19.8 secs

     WARNING: integrated charge=    91.00525260, expected=    91.00000000

     total energy              =    -829.62946339 Ry
     estimated scf accuracy    <       0.05896677 Ry

     total magnetization       =     3.01 Bohr mag/cell
     absolute magnetization    =     3.17 Bohr mag/cell
[tb_dev] Currently allocated     5.34E+00 Mbytes, locked:    0 /   9
[tb_pin] Currently allocated     0.00E+00 Mbytes, locked:    0 /   0

     iteration #  4     ecut=    60.00 Ry     beta= 0.40
     Davidson diagonalization with overlap

---- Real-time Memory Report at c_bands before calling an iterative solver
          1876 MiB given to the printing process from OS
          1428 MiB allocation reported by mallinfo(arena+hblkhd)
         57557 MiB available memory on the node where the printing process lives
     GPU memory used/free/total (MiB): 2228 / 14052 / 16280
------------------
     ethr =  6.48E-05,  avg # of iterations =  2.1
     Minimization algorithm failed to find Fermi energy: reverting to bisection
     Possible cause: smearing is larger than the electronic band-gap.

     negative rho (up, down):  4.981E-02 4.954E-02

     total cpu time spent up to now is       24.2 secs

     WARNING: integrated charge=    91.00304605, expected=    91.00000000

     total energy              =    -829.64406618 Ry
     estimated scf accuracy    <       0.00879498 Ry

     total magnetization       =     3.00 Bohr mag/cell
     absolute magnetization    =     3.10 Bohr mag/cell
[tb_dev] Currently allocated     5.34E+00 Mbytes, locked:    0 /   9
[tb_pin] Currently allocated     0.00E+00 Mbytes, locked:    0 /   0

     iteration #  5     ecut=    60.00 Ry     beta= 0.40
     Davidson diagonalization with overlap

---- Real-time Memory Report at c_bands before calling an iterative solver
          1950 MiB given to the printing process from OS
          1438 MiB allocation reported by mallinfo(arena+hblkhd)
         57548 MiB available memory on the node where the printing process lives
     GPU memory used/free/total (MiB): 2334 / 13946 / 16280
------------------
     ethr =  9.66E-06,  avg # of iterations =  2.6
     Minimization algorithm failed to find Fermi energy: reverting to bisection
     Possible cause: smearing is larger than the electronic band-gap.

     negative rho (up, down):  4.946E-02 4.940E-02

     total cpu time spent up to now is       29.0 secs

     WARNING: integrated charge=    91.00052291, expected=    91.00000000

     total energy              =    -829.64520213 Ry
     estimated scf accuracy    <       0.00039217 Ry

     total magnetization       =     3.00 Bohr mag/cell
     absolute magnetization    =     3.09 Bohr mag/cell
[tb_dev] Currently allocated     5.34E+00 Mbytes, locked:    0 /   9
[tb_pin] Currently allocated     0.00E+00 Mbytes, locked:    0 /   0

     iteration #  6     ecut=    60.00 Ry     beta= 0.40
     Davidson diagonalization with overlap

---- Real-time Memory Report at c_bands before calling an iterative solver
          2017 MiB given to the printing process from OS
          1444 MiB allocation reported by mallinfo(arena+hblkhd)
         57539 MiB available memory on the node where the printing process lives
     GPU memory used/free/total (MiB): 2334 / 13946 / 16280
------------------
     ethr =  4.31E-07,  avg # of iterations =  4.3
     Minimization algorithm failed to find Fermi energy: reverting to bisection
     Possible cause: smearing is larger than the electronic band-gap.

     negative rho (up, down):  4.939E-02 4.936E-02

     total cpu time spent up to now is       35.2 secs

     WARNING: integrated charge=    91.00006137, expected=    91.00000000

     total energy              =    -829.64533615 Ry
     estimated scf accuracy    <       0.00005238 Ry

     total magnetization       =     3.00 Bohr mag/cell
     absolute magnetization    =     3.09 Bohr mag/cell
[tb_dev] Currently allocated     5.34E+00 Mbytes, locked:    0 /   9
[tb_pin] Currently allocated     0.00E+00 Mbytes, locked:    0 /   0

     iteration #  7     ecut=    60.00 Ry     beta= 0.40
     Davidson diagonalization with overlap

---- Real-time Memory Report at c_bands before calling an iterative solver
          2089 MiB given to the printing process from OS
          1451 MiB allocation reported by mallinfo(arena+hblkhd)
         57523 MiB available memory on the node where the printing process lives
     GPU memory used/free/total (MiB): 2334 / 13946 / 16280
------------------
     ethr =  5.76E-08,  avg # of iterations =  2.6
     Minimization algorithm failed to find Fermi energy: reverting to bisection
     Possible cause: smearing is larger than the electronic band-gap.

     negative rho (up, down):  4.936E-02 4.934E-02

     total cpu time spent up to now is       40.3 secs

     WARNING: integrated charge=    90.99989223, expected=    91.00000000

     total energy              =    -829.64536039 Ry
     estimated scf accuracy    <       0.00000954 Ry

     total magnetization       =     3.00 Bohr mag/cell
     absolute magnetization    =     3.09 Bohr mag/cell
[tb_dev] Currently allocated     5.34E+00 Mbytes, locked:    0 /   9
[tb_pin] Currently allocated     0.00E+00 Mbytes, locked:    0 /   0

     iteration #  8     ecut=    60.00 Ry     beta= 0.40
     Davidson diagonalization with overlap

---- Real-time Memory Report at c_bands before calling an iterative solver
          2156 MiB given to the printing process from OS
          1458 MiB allocation reported by mallinfo(arena+hblkhd)
         57522 MiB available memory on the node where the printing process lives
     GPU memory used/free/total (MiB): 2334 / 13946 / 16280
------------------
     ethr =  1.05E-08,  avg # of iterations =  2.1

     negative rho (up, down):  4.937E-02 4.934E-02

     total cpu time spent up to now is       44.9 secs

     WARNING: integrated charge=    91.00259134, expected=    91.00000000

     total energy              =    -829.64188998 Ry
     estimated scf accuracy    <       0.00000865 Ry

     total magnetization       =     3.01 Bohr mag/cell
     absolute magnetization    =     3.09 Bohr mag/cell
[tb_dev] Currently allocated     5.34E+00 Mbytes, locked:    0 /   9
[tb_pin] Currently allocated     0.00E+00 Mbytes, locked:    0 /   0

     iteration #  9     ecut=    60.00 Ry     beta= 0.40
     Davidson diagonalization with overlap

---- Real-time Memory Report at c_bands before calling an iterative solver
          2195 MiB given to the printing process from OS
          1467 MiB allocation reported by mallinfo(arena+hblkhd)
         57515 MiB available memory on the node where the printing process lives
     GPU memory used/free/total (MiB): 2334 / 13946 / 16280
------------------
     ethr =  9.51E-09,  avg # of iterations =  2.0
     Minimization algorithm failed to find Fermi energy: reverting to bisection
     Possible cause: smearing is larger than the electronic band-gap.

     negative rho (up, down):  4.937E-02 4.934E-02

     total cpu time spent up to now is       49.2 secs

     WARNING: integrated charge=    91.00404831, expected=    91.00000000

     total energy              =    -829.64536564 Ry
     estimated scf accuracy    <       0.00000255 Ry

     total magnetization       =     3.00 Bohr mag/cell
     absolute magnetization    =     3.09 Bohr mag/cell
[tb_dev] Currently allocated     5.34E+00 Mbytes, locked:    0 /   9
[tb_pin] Currently allocated     0.00E+00 Mbytes, locked:    0 /   0

     iteration # 10     ecut=    60.00 Ry     beta= 0.40
     Davidson diagonalization with overlap

---- Real-time Memory Report at c_bands before calling an iterative solver
          2227 MiB given to the printing process from OS
          1474 MiB allocation reported by mallinfo(arena+hblkhd)
         57508 MiB available memory on the node where the printing process lives
     GPU memory used/free/total (MiB): 2334 / 13946 / 16280
------------------
     ethr =  2.80E-09,  avg # of iterations =  1.5
     Minimization algorithm failed to find Fermi energy: reverting to bisection
     Possible cause: smearing is larger than the electronic band-gap.

     negative rho (up, down):  4.937E-02 4.934E-02

     total cpu time spent up to now is       53.4 secs

     WARNING: integrated charge=    91.00318610, expected=    91.00000000

     total energy              =    -829.64536548 Ry
     estimated scf accuracy    <       0.00000199 Ry

     total magnetization       =     3.00 Bohr mag/cell
     absolute magnetization    =     3.09 Bohr mag/cell
[tb_dev] Currently allocated     5.34E+00 Mbytes, locked:    0 /   9
[tb_pin] Currently allocated     0.00E+00 Mbytes, locked:    0 /   0

     iteration # 11     ecut=    60.00 Ry     beta= 0.40
     Davidson diagonalization with overlap

---- Real-time Memory Report at c_bands before calling an iterative solver
          2249 MiB given to the printing process from OS
          1475 MiB allocation reported by mallinfo(arena+hblkhd)
         57507 MiB available memory on the node where the printing process lives
     GPU memory used/free/total (MiB): 2334 / 13946 / 16280
------------------
     ethr =  2.19E-09,  avg # of iterations =  2.0
     Minimization algorithm failed to find Fermi energy: reverting to bisection
     Possible cause: smearing is larger than the electronic band-gap.

     negative rho (up, down):  4.937E-02 4.934E-02

     total cpu time spent up to now is       57.7 secs

     WARNING: integrated charge=    91.00264022, expected=    91.00000000

     total energy              =    -829.64536556 Ry
     estimated scf accuracy    <       0.00000051 Ry

     total magnetization       =     3.00 Bohr mag/cell
     absolute magnetization    =     3.09 Bohr mag/cell
[tb_dev] Currently allocated     5.34E+00 Mbytes, locked:    0 /   9
[tb_pin] Currently allocated     0.00E+00 Mbytes, locked:    0 /   0

     iteration # 12     ecut=    60.00 Ry     beta= 0.40
     Davidson diagonalization with overlap

---- Real-time Memory Report at c_bands before calling an iterative solver
          2272 MiB given to the printing process from OS
          1477 MiB allocation reported by mallinfo(arena+hblkhd)
         57504 MiB available memory on the node where the printing process lives
     GPU memory used/free/total (MiB): 2334 / 13946 / 16280
------------------
     ethr =  5.62E-10,  avg # of iterations =  1.1
     Minimization algorithm failed to find Fermi energy: reverting to bisection
     Possible cause: smearing is larger than the electronic band-gap.

     negative rho (up, down):  4.936E-02 4.934E-02

     total cpu time spent up to now is       61.5 secs

     WARNING: integrated charge=    91.00048931, expected=    91.00000000

     total energy              =    -829.64536551 Ry
     estimated scf accuracy    <       0.00000024 Ry

     total magnetization       =     3.00 Bohr mag/cell
     absolute magnetization    =     3.09 Bohr mag/cell
[tb_dev] Currently allocated     5.34E+00 Mbytes, locked:    0 /   9
[tb_pin] Currently allocated     0.00E+00 Mbytes, locked:    0 /   0

     iteration # 13     ecut=    60.00 Ry     beta= 0.40
     Davidson diagonalization with overlap

---- Real-time Memory Report at c_bands before calling an iterative solver
          2294 MiB given to the printing process from OS
          1479 MiB allocation reported by mallinfo(arena+hblkhd)
         57503 MiB available memory on the node where the printing process lives
     GPU memory used/free/total (MiB): 2334 / 13946 / 16280
------------------
     ethr =  2.69E-10,  avg # of iterations =  2.0

     negative rho (up, down):  4.937E-02 4.934E-02

     total cpu time spent up to now is       66.0 secs

     WARNING: integrated charge=    91.00175500, expected=    91.00000000

     total energy              =    -829.64172340 Ry
     estimated scf accuracy    <       0.00000494 Ry

     total magnetization       =     3.01 Bohr mag/cell
     absolute magnetization    =     3.10 Bohr mag/cell
[tb_dev] Currently allocated     5.34E+00 Mbytes, locked:    0 /   9
[tb_pin] Currently allocated     0.00E+00 Mbytes, locked:    0 /   0

     iteration # 14     ecut=    60.00 Ry     beta= 0.40
     Davidson diagonalization with overlap

---- Real-time Memory Report at c_bands before calling an iterative solver
          2313 MiB given to the printing process from OS
          1481 MiB allocation reported by mallinfo(arena+hblkhd)
         57502 MiB available memory on the node where the printing process lives
     GPU memory used/free/total (MiB): 2334 / 13946 / 16280
------------------
     ethr =  2.69E-10,  avg # of iterations =  2.0
     Minimization algorithm failed to find Fermi energy: reverting to bisection
     Possible cause: smearing is larger than the electronic band-gap.

     negative rho (up, down):  4.937E-02 4.934E-02

     total cpu time spent up to now is       70.4 secs

     WARNING: integrated charge=    91.00143638, expected=    91.00000000

     total energy              =    -829.64536559 Ry
     estimated scf accuracy    <       0.00000013 Ry

     total magnetization       =     3.00 Bohr mag/cell
     absolute magnetization    =     3.09 Bohr mag/cell
[tb_dev] Currently allocated     5.34E+00 Mbytes, locked:    0 /   9
[tb_pin] Currently allocated     0.00E+00 Mbytes, locked:    0 /   0

     iteration # 15     ecut=    60.00 Ry     beta= 0.40
     Davidson diagonalization with overlap

---- Real-time Memory Report at c_bands before calling an iterative solver
          2335 MiB given to the printing process from OS
          1483 MiB allocation reported by mallinfo(arena+hblkhd)
         57501 MiB available memory on the node where the printing process lives
     GPU memory used/free/total (MiB): 2334 / 13946 / 16280
------------------
     ethr =  1.44E-10,  avg # of iterations =  1.0
     Minimization algorithm failed to find Fermi energy: reverting to bisection
     Possible cause: smearing is larger than the electronic band-gap.

     negative rho (up, down):  4.936E-02 4.934E-02

     total cpu time spent up to now is       74.4 secs

     WARNING: integrated charge=    91.00130239, expected=    91.00000000

     total energy              =    -829.64536559 Ry
     estimated scf accuracy    <       0.00000010 Ry

     total magnetization       =     3.00 Bohr mag/cell
     absolute magnetization    =     3.09 Bohr mag/cell
[tb_dev] Currently allocated     5.34E+00 Mbytes, locked:    0 /   9
[tb_pin] Currently allocated     0.00E+00 Mbytes, locked:    0 /   0

     iteration # 16     ecut=    60.00 Ry     beta= 0.40
     Davidson diagonalization with overlap

---- Real-time Memory Report at c_bands before calling an iterative solver
          2357 MiB given to the printing process from OS
          1485 MiB allocation reported by mallinfo(arena+hblkhd)
         57498 MiB available memory on the node where the printing process lives
     GPU memory used/free/total (MiB): 2334 / 13946 / 16280
------------------
     ethr =  1.09E-10,  avg # of iterations =  1.0
     Minimization algorithm failed to find Fermi energy: reverting to bisection
     Possible cause: smearing is larger than the electronic band-gap.

     negative rho (up, down):  4.936E-02 4.934E-02

     total cpu time spent up to now is       78.3 secs

     WARNING: integrated charge=    91.00108357, expected=    91.00000000

     total energy              =    -829.64536559 Ry
     estimated scf accuracy    <       0.00000008 Ry

     total magnetization       =     3.00 Bohr mag/cell
     absolute magnetization    =     3.09 Bohr mag/cell
[tb_dev] Currently allocated     5.34E+00 Mbytes, locked:    0 /   9
[tb_pin] Currently allocated     0.00E+00 Mbytes, locked:    0 /   0

     iteration # 17     ecut=    60.00 Ry     beta= 0.40
     Davidson diagonalization with overlap

---- Real-time Memory Report at c_bands before calling an iterative solver
          2378 MiB given to the printing process from OS
          1487 MiB allocation reported by mallinfo(arena+hblkhd)
         57497 MiB available memory on the node where the printing process lives
     GPU memory used/free/total (MiB): 2334 / 13946 / 16280
------------------
     ethr =  9.22E-11,  avg # of iterations =  1.0

     negative rho (up, down):  4.936E-02 4.934E-02

     total cpu time spent up to now is       82.2 secs

     WARNING: integrated charge=    91.00141110, expected=    91.00000000

     total energy              =    -829.64166495 Ry
     estimated scf accuracy    <       0.00000405 Ry

     total magnetization       =     3.01 Bohr mag/cell
     absolute magnetization    =     3.10 Bohr mag/cell
[tb_dev] Currently allocated     5.34E+00 Mbytes, locked:    0 /   9
[tb_pin] Currently allocated     0.00E+00 Mbytes, locked:    0 /   0

     iteration # 18     ecut=    60.00 Ry     beta= 0.40
     Davidson diagonalization with overlap

---- Real-time Memory Report at c_bands before calling an iterative solver
          2400 MiB given to the printing process from OS
          1489 MiB allocation reported by mallinfo(arena+hblkhd)
         57498 MiB available memory on the node where the printing process lives
     GPU memory used/free/total (MiB): 2334 / 13946 / 16280
------------------
     ethr =  9.22E-11,  avg # of iterations =  1.0
     Minimization algorithm failed to find Fermi energy: reverting to bisection
     Possible cause: smearing is larger than the electronic band-gap.

     negative rho (up, down):  4.936E-02 4.934E-02

     total cpu time spent up to now is       86.2 secs

     WARNING: integrated charge=    91.00131172, expected=    91.00000000

     total energy              =    -829.64536559 Ry
     estimated scf accuracy    <       0.00000010 Ry

     total magnetization       =     3.00 Bohr mag/cell
     absolute magnetization    =     3.09 Bohr mag/cell
[tb_dev] Currently allocated     5.34E+00 Mbytes, locked:    0 /   9
[tb_pin] Currently allocated     0.00E+00 Mbytes, locked:    0 /   0

     iteration # 19     ecut=    60.00 Ry     beta= 0.40
     Davidson diagonalization with overlap

---- Real-time Memory Report at c_bands before calling an iterative solver
          2420 MiB given to the printing process from OS
          1491 MiB allocation reported by mallinfo(arena+hblkhd)
         57497 MiB available memory on the node where the printing process lives
     GPU memory used/free/total (MiB): 2334 / 13946 / 16280
------------------
     ethr =  9.22E-11,  avg # of iterations =  1.0
     Minimization algorithm failed to find Fermi energy: reverting to bisection
     Possible cause: smearing is larger than the electronic band-gap.

     negative rho (up, down):  4.936E-02 4.934E-02

     total cpu time spent up to now is       90.0 secs

     WARNING: integrated charge=    91.00125041, expected=    91.00000000

     total energy              =    -829.64536559 Ry
     estimated scf accuracy    <       0.00000009 Ry

     total magnetization       =     3.00 Bohr mag/cell
     absolute magnetization    =     3.09 Bohr mag/cell
[tb_dev] Currently allocated     5.34E+00 Mbytes, locked:    0 /   9
[tb_pin] Currently allocated     0.00E+00 Mbytes, locked:    0 /   0

     iteration # 20     ecut=    60.00 Ry     beta= 0.40
     Davidson diagonalization with overlap

---- Real-time Memory Report at c_bands before calling an iterative solver
          2423 MiB given to the printing process from OS
          1493 MiB allocation reported by mallinfo(arena+hblkhd)
         57494 MiB available memory on the node where the printing process lives
     GPU memory used/free/total (MiB): 2334 / 13946 / 16280
------------------
     ethr =  9.22E-11,  avg # of iterations =  1.0
     Minimization algorithm failed to find Fermi energy: reverting to bisection
     Possible cause: smearing is larger than the electronic band-gap.

     negative rho (up, down):  4.936E-02 4.934E-02

     total cpu time spent up to now is       94.0 secs

     WARNING: integrated charge=    91.00123743, expected=    91.00000000

     total energy              =    -829.64536559 Ry
     estimated scf accuracy    <       0.00000008 Ry

     total magnetization       =     3.00 Bohr mag/cell
     absolute magnetization    =     3.09 Bohr mag/cell
[tb_dev] Currently allocated     5.34E+00 Mbytes, locked:    0 /   9
[tb_pin] Currently allocated     0.00E+00 Mbytes, locked:    0 /   0

     iteration # 21     ecut=    60.00 Ry     beta= 0.40
     Davidson diagonalization with overlap

---- Real-time Memory Report at c_bands before calling an iterative solver
          2428 MiB given to the printing process from OS
          1495 MiB allocation reported by mallinfo(arena+hblkhd)
         57489 MiB available memory on the node where the printing process lives
     GPU memory used/free/total (MiB): 2334 / 13946 / 16280
------------------
     ethr =  8.65E-11,  avg # of iterations =  1.0
     Minimization algorithm failed to find Fermi energy: reverting to bisection
     Possible cause: smearing is larger than the electronic band-gap.

     negative rho (up, down):  4.936E-02 4.934E-02

     total cpu time spent up to now is       97.9 secs

     WARNING: integrated charge=    91.00118879, expected=    91.00000000

     total energy              =    -829.64536559 Ry
     estimated scf accuracy    <       0.00000008 Ry

     total magnetization       =     3.00 Bohr mag/cell
     absolute magnetization    =     3.09 Bohr mag/cell
[tb_dev] Currently allocated     5.34E+00 Mbytes, locked:    0 /   9
[tb_pin] Currently allocated     0.00E+00 Mbytes, locked:    0 /   0

     iteration # 22     ecut=    60.00 Ry     beta= 0.40
     Davidson diagonalization with overlap

---- Real-time Memory Report at c_bands before calling an iterative solver
          2428 MiB given to the printing process from OS
          1497 MiB allocation reported by mallinfo(arena+hblkhd)
         57491 MiB available memory on the node where the printing process lives
     GPU memory used/free/total (MiB): 2334 / 13946 / 16280
------------------
     ethr =  8.55E-11,  avg # of iterations =  1.0
     Minimization algorithm failed to find Fermi energy: reverting to bisection
     Possible cause: smearing is larger than the electronic band-gap.

     negative rho (up, down):  4.936E-02 4.934E-02

     total cpu time spent up to now is      101.8 secs

     WARNING: integrated charge=    91.00117661, expected=    91.00000000

     total energy              =    -829.64536559 Ry
     estimated scf accuracy    <       0.00000007 Ry

     total magnetization       =     3.00 Bohr mag/cell
     absolute magnetization    =     3.09 Bohr mag/cell
[tb_dev] Currently allocated     5.34E+00 Mbytes, locked:    0 /   9
[tb_pin] Currently allocated     0.00E+00 Mbytes, locked:    0 /   0

     iteration # 23     ecut=    60.00 Ry     beta= 0.40
     Davidson diagonalization with overlap

---- Real-time Memory Report at c_bands before calling an iterative solver
          2431 MiB given to the printing process from OS
          1499 MiB allocation reported by mallinfo(arena+hblkhd)
         57489 MiB available memory on the node where the printing process lives
     GPU memory used/free/total (MiB): 2334 / 13946 / 16280
------------------
     ethr =  7.89E-11,  avg # of iterations =  1.0
     Minimization algorithm failed to find Fermi energy: reverting to bisection
     Possible cause: smearing is larger than the electronic band-gap.

     negative rho (up, down):  4.936E-02 4.934E-02

     total cpu time spent up to now is      105.6 secs

     WARNING: integrated charge=    91.00116309, expected=    91.00000000

     total energy              =    -829.64536559 Ry
     estimated scf accuracy    <       0.00000007 Ry

     total magnetization       =     3.00 Bohr mag/cell
     absolute magnetization    =     3.09 Bohr mag/cell
[tb_dev] Currently allocated     5.34E+00 Mbytes, locked:    0 /   9
[tb_pin] Currently allocated     0.00E+00 Mbytes, locked:    0 /   0

     iteration # 24     ecut=    60.00 Ry     beta= 0.40
     Davidson diagonalization with overlap

---- Real-time Memory Report at c_bands before calling an iterative solver
          2433 MiB given to the printing process from OS
          1501 MiB allocation reported by mallinfo(arena+hblkhd)
         57485 MiB available memory on the node where the printing process lives
     GPU memory used/free/total (MiB): 2334 / 13946 / 16280
------------------
     ethr =  7.73E-11,  avg # of iterations =  1.0
     Minimization algorithm failed to find Fermi energy: reverting to bisection
     Possible cause: smearing is larger than the electronic band-gap.

     negative rho (up, down):  4.936E-02 4.934E-02

     total cpu time spent up to now is      109.4 secs

     WARNING: integrated charge=    91.00117640, expected=    91.00000000

     total energy              =    -829.64536559 Ry
     estimated scf accuracy    <       0.00000007 Ry

     total magnetization       =     3.00 Bohr mag/cell
     absolute magnetization    =     3.09 Bohr mag/cell
[tb_dev] Currently allocated     5.34E+00 Mbytes, locked:    0 /   9
[tb_pin] Currently allocated     0.00E+00 Mbytes, locked:    0 /   0

     iteration # 25     ecut=    60.00 Ry     beta= 0.40
     Davidson diagonalization with overlap

---- Real-time Memory Report at c_bands before calling an iterative solver
          2435 MiB given to the printing process from OS
          1503 MiB allocation reported by mallinfo(arena+hblkhd)
         57484 MiB available memory on the node where the printing process lives
     GPU memory used/free/total (MiB): 2334 / 13946 / 16280
------------------
     ethr =  7.54E-11,  avg # of iterations =  1.0
     Minimization algorithm failed to find Fermi energy: reverting to bisection
     Possible cause: smearing is larger than the electronic band-gap.

     negative rho (up, down):  4.936E-02 4.934E-02

     total cpu time spent up to now is      113.3 secs

     WARNING: integrated charge=    91.00114805, expected=    91.00000000

     total energy              =    -829.64536559 Ry
     estimated scf accuracy    <       0.00000007 Ry

     total magnetization       =     3.00 Bohr mag/cell
     absolute magnetization    =     3.09 Bohr mag/cell
[tb_dev] Currently allocated     5.34E+00 Mbytes, locked:    0 /   9
[tb_pin] Currently allocated     0.00E+00 Mbytes, locked:    0 /   0

     iteration # 26     ecut=    60.00 Ry     beta= 0.40
     Davidson diagonalization with overlap

---- Real-time Memory Report at c_bands before calling an iterative solver
          2437 MiB given to the printing process from OS
          1505 MiB allocation reported by mallinfo(arena+hblkhd)
         57483 MiB available memory on the node where the printing process lives
     GPU memory used/free/total (MiB): 2334 / 13946 / 16280
------------------
     ethr =  7.54E-11,  avg # of iterations =  1.0
     Minimization algorithm failed to find Fermi energy: reverting to bisection
     Possible cause: smearing is larger than the electronic band-gap.

     negative rho (up, down):  4.936E-02 4.934E-02

     total cpu time spent up to now is      117.2 secs

     WARNING: integrated charge=    90.99998885, expected=    91.00000000

     total energy              =    -829.64536556 Ry
     estimated scf accuracy    <       0.00000007 Ry

     total magnetization       =     3.00 Bohr mag/cell
     absolute magnetization    =     3.09 Bohr mag/cell
[tb_dev] Currently allocated     5.34E+00 Mbytes, locked:    0 /   9
[tb_pin] Currently allocated     0.00E+00 Mbytes, locked:    0 /   0

     iteration # 27     ecut=    60.00 Ry     beta= 0.40
     Davidson diagonalization with overlap

---- Real-time Memory Report at c_bands before calling an iterative solver
          2441 MiB given to the printing process from OS
          1507 MiB allocation reported by mallinfo(arena+hblkhd)
         57482 MiB available memory on the node where the printing process lives
     GPU memory used/free/total (MiB): 2334 / 13946 / 16280
------------------
     ethr =  7.35E-11,  avg # of iterations =  2.0

     negative rho (up, down):  4.936E-02 4.934E-02

     total cpu time spent up to now is      121.7 secs

     WARNING: integrated charge=    91.00105597, expected=    91.00000000

     total energy              =    -829.64172440 Ry
     estimated scf accuracy    <       0.00000503 Ry

     total magnetization       =     3.01 Bohr mag/cell
     absolute magnetization    =     3.10 Bohr mag/cell
[tb_dev] Currently allocated     5.34E+00 Mbytes, locked:    0 /   9
[tb_pin] Currently allocated     0.00E+00 Mbytes, locked:    0 /   0

     iteration # 28     ecut=    60.00 Ry     beta= 0.40
     Davidson diagonalization with overlap

---- Real-time Memory Report at c_bands before calling an iterative solver
          2443 MiB given to the printing process from OS
          1509 MiB allocation reported by mallinfo(arena+hblkhd)
         57477 MiB available memory on the node where the printing process lives
     GPU memory used/free/total (MiB): 2334 / 13946 / 16280
------------------
     ethr =  7.35E-11,  avg # of iterations =  2.0

     negative rho (up, down):  4.936E-02 4.934E-02

     total cpu time spent up to now is      126.1 secs

     WARNING: integrated charge=    91.00115615, expected=    91.00000000

     total energy              =    -829.64166557 Ry
     estimated scf accuracy    <       0.00000408 Ry

     total magnetization       =     3.01 Bohr mag/cell
     absolute magnetization    =     3.10 Bohr mag/cell
[tb_dev] Currently allocated     5.34E+00 Mbytes, locked:    0 /   9
[tb_pin] Currently allocated     0.00E+00 Mbytes, locked:    0 /   0

     iteration # 29     ecut=    60.00 Ry     beta= 0.40
     Davidson diagonalization with overlap

---- Real-time Memory Report at c_bands before calling an iterative solver
          2445 MiB given to the printing process from OS
          1511 MiB allocation reported by mallinfo(arena+hblkhd)
         57478 MiB available memory on the node where the printing process lives
     GPU memory used/free/total (MiB): 2334 / 13946 / 16280
------------------
     ethr =  7.35E-11,  avg # of iterations =  1.0
     Minimization algorithm failed to find Fermi energy: reverting to bisection
     Possible cause: smearing is larger than the electronic band-gap.

     negative rho (up, down):  4.936E-02 4.934E-02

     total cpu time spent up to now is      130.1 secs

     WARNING: integrated charge=    91.00117145, expected=    91.00000000

     total energy              =    -829.64536559 Ry
     estimated scf accuracy    <       0.00000007 Ry

     total magnetization       =     3.00 Bohr mag/cell
     absolute magnetization    =     3.09 Bohr mag/cell
[tb_dev] Currently allocated     5.34E+00 Mbytes, locked:    0 /   9
[tb_pin] Currently allocated     0.00E+00 Mbytes, locked:    0 /   0

     iteration # 30     ecut=    60.00 Ry     beta= 0.40
     Davidson diagonalization with overlap

---- Real-time Memory Report at c_bands before calling an iterative solver
          2447 MiB given to the printing process from OS
          1513 MiB allocation reported by mallinfo(arena+hblkhd)
         57478 MiB available memory on the node where the printing process lives
     GPU memory used/free/total (MiB): 2334 / 13946 / 16280
------------------
     ethr =  7.25E-11,  avg # of iterations =  1.0
     Minimization algorithm failed to find Fermi energy: reverting to bisection
     Possible cause: smearing is larger than the electronic band-gap.

     negative rho (up, down):  4.936E-02 4.934E-02

     total cpu time spent up to now is      133.9 secs

     WARNING: integrated charge=    91.00117821, expected=    91.00000000

     total energy              =    -829.64536559 Ry
     estimated scf accuracy    <       0.00000007 Ry

     total magnetization       =     3.00 Bohr mag/cell
     absolute magnetization    =     3.09 Bohr mag/cell
[tb_dev] Currently allocated     5.34E+00 Mbytes, locked:    0 /   9
[tb_pin] Currently allocated     0.00E+00 Mbytes, locked:    0 /   0

     iteration # 31     ecut=    60.00 Ry     beta= 0.40
     Davidson diagonalization with overlap

---- Real-time Memory Report at c_bands before calling an iterative solver
          2449 MiB given to the printing process from OS
          1515 MiB allocation reported by mallinfo(arena+hblkhd)
         57476 MiB available memory on the node where the printing process lives
     GPU memory used/free/total (MiB): 2334 / 13946 / 16280
------------------
     ethr =  7.25E-11,  avg # of iterations =  1.0
     Minimization algorithm failed to find Fermi energy: reverting to bisection
     Possible cause: smearing is larger than the electronic band-gap.

     negative rho (up, down):  4.936E-02 4.934E-02

     total cpu time spent up to now is      137.8 secs

     WARNING: integrated charge=    91.00119365, expected=    91.00000000

     total energy              =    -829.64536559 Ry
     estimated scf accuracy    <       0.00000007 Ry

     total magnetization       =     3.00 Bohr mag/cell
     absolute magnetization    =     3.09 Bohr mag/cell
[tb_dev] Currently allocated     5.34E+00 Mbytes, locked:    0 /   9
[tb_pin] Currently allocated     0.00E+00 Mbytes, locked:    0 /   0

     iteration # 32     ecut=    60.00 Ry     beta= 0.40
     Davidson diagonalization with overlap

---- Real-time Memory Report at c_bands before calling an iterative solver
          2450 MiB given to the printing process from OS
          1517 MiB allocation reported by mallinfo(arena+hblkhd)
         57469 MiB available memory on the node where the printing process lives
     GPU memory used/free/total (MiB): 2334 / 13946 / 16280
------------------
     ethr =  7.25E-11,  avg # of iterations =  1.0
     Minimization algorithm failed to find Fermi energy: reverting to bisection
     Possible cause: smearing is larger than the electronic band-gap.

     negative rho (up, down):  4.936E-02 4.934E-02

     total cpu time spent up to now is      141.7 secs

     WARNING: integrated charge=    91.00116779, expected=    91.00000000

     total energy              =    -829.64536559 Ry
     estimated scf accuracy    <       0.00000007 Ry

     total magnetization       =     3.00 Bohr mag/cell
     absolute magnetization    =     3.09 Bohr mag/cell
[tb_dev] Currently allocated     5.34E+00 Mbytes, locked:    0 /   9
[tb_pin] Currently allocated     0.00E+00 Mbytes, locked:    0 /   0

     iteration # 33     ecut=    60.00 Ry     beta= 0.40
     Davidson diagonalization with overlap

---- Real-time Memory Report at c_bands before calling an iterative solver
          2453 MiB given to the printing process from OS
          1519 MiB allocation reported by mallinfo(arena+hblkhd)
         57467 MiB available memory on the node where the printing process lives
     GPU memory used/free/total (MiB): 2334 / 13946 / 16280
------------------
     ethr =  7.25E-11,  avg # of iterations =  1.0
     Minimization algorithm failed to find Fermi energy: reverting to bisection
     Possible cause: smearing is larger than the electronic band-gap.

     negative rho (up, down):  4.936E-02 4.934E-02

     total cpu time spent up to now is      145.5 secs

     WARNING: integrated charge=    91.00114494, expected=    91.00000000

     total energy              =    -829.64536559 Ry
     estimated scf accuracy    <       0.00000007 Ry

     total magnetization       =     3.00 Bohr mag/cell
     absolute magnetization    =     3.09 Bohr mag/cell
[tb_dev] Currently allocated     5.34E+00 Mbytes, locked:    0 /   9
[tb_pin] Currently allocated     0.00E+00 Mbytes, locked:    0 /   0

     iteration # 34     ecut=    60.00 Ry     beta= 0.40
     Davidson diagonalization with overlap

---- Real-time Memory Report at c_bands before calling an iterative solver
          2455 MiB given to the printing process from OS
          1521 MiB allocation reported by mallinfo(arena+hblkhd)
         57466 MiB available memory on the node where the printing process lives
     GPU memory used/free/total (MiB): 2334 / 13946 / 16280
------------------
     ethr =  7.25E-11,  avg # of iterations =  1.0
     Minimization algorithm failed to find Fermi energy: reverting to bisection
     Possible cause: smearing is larger than the electronic band-gap.

     negative rho (up, down):  4.936E-02 4.934E-02

     total cpu time spent up to now is      149.3 secs

     WARNING: integrated charge=    91.00113511, expected=    91.00000000

     total energy              =    -829.64536559 Ry
     estimated scf accuracy    <       0.00000007 Ry

     total magnetization       =     3.00 Bohr mag/cell
     absolute magnetization    =     3.09 Bohr mag/cell
[tb_dev] Currently allocated     5.34E+00 Mbytes, locked:    0 /   9
[tb_pin] Currently allocated     0.00E+00 Mbytes, locked:    0 /   0

     iteration # 35     ecut=    60.00 Ry     beta= 0.40
     Davidson diagonalization with overlap

---- Real-time Memory Report at c_bands before calling an iterative solver
          2456 MiB given to the printing process from OS
          1523 MiB allocation reported by mallinfo(arena+hblkhd)
         57467 MiB available memory on the node where the printing process lives
     GPU memory used/free/total (MiB): 2334 / 13946 / 16280
------------------
     ethr =  7.25E-11,  avg # of iterations =  1.0
     Minimization algorithm failed to find Fermi energy: reverting to bisection
     Possible cause: smearing is larger than the electronic band-gap.

     negative rho (up, down):  4.936E-02 4.934E-02

     total cpu time spent up to now is      153.1 secs

     WARNING: integrated charge=    91.00116505, expected=    91.00000000

     total energy              =    -829.64536559 Ry
     estimated scf accuracy    <       0.00000007 Ry

     total magnetization       =     3.00 Bohr mag/cell
     absolute magnetization    =     3.09 Bohr mag/cell
[tb_dev] Currently allocated     5.34E+00 Mbytes, locked:    0 /   9
[tb_pin] Currently allocated     0.00E+00 Mbytes, locked:    0 /   0

     iteration # 36     ecut=    60.00 Ry     beta= 0.40
     Davidson diagonalization with overlap

---- Real-time Memory Report at c_bands before calling an iterative solver
          2459 MiB given to the printing process from OS
          1524 MiB allocation reported by mallinfo(arena+hblkhd)
         57466 MiB available memory on the node where the printing process lives
     GPU memory used/free/total (MiB): 2334 / 13946 / 16280
------------------
     ethr =  7.15E-11,  avg # of iterations =  1.0
     Minimization algorithm failed to find Fermi energy: reverting to bisection
     Possible cause: smearing is larger than the electronic band-gap.

     negative rho (up, down):  4.936E-02 4.934E-02

     total cpu time spent up to now is      156.9 secs

     WARNING: integrated charge=    91.00118014, expected=    91.00000000

     total energy              =    -829.64536559 Ry
     estimated scf accuracy    <       0.00000007 Ry

     total magnetization       =     3.00 Bohr mag/cell
     absolute magnetization    =     3.09 Bohr mag/cell
[tb_dev] Currently allocated     5.34E+00 Mbytes, locked:    0 /   9
[tb_pin] Currently allocated     0.00E+00 Mbytes, locked:    0 /   0

     iteration # 37     ecut=    60.00 Ry     beta= 0.40
     Davidson diagonalization with overlap

---- Real-time Memory Report at c_bands before calling an iterative solver
          2461 MiB given to the printing process from OS
          1526 MiB allocation reported by mallinfo(arena+hblkhd)
         57465 MiB available memory on the node where the printing process lives
     GPU memory used/free/total (MiB): 2334 / 13946 / 16280
------------------
     ethr =  7.15E-11,  avg # of iterations =  1.0
     Minimization algorithm failed to find Fermi energy: reverting to bisection
     Possible cause: smearing is larger than the electronic band-gap.

     negative rho (up, down):  4.936E-02 4.934E-02

     total cpu time spent up to now is      160.7 secs

     WARNING: integrated charge=    90.99997385, expected=    91.00000000

     total energy              =    -829.64536556 Ry
     estimated scf accuracy    <       0.00000007 Ry

     total magnetization       =     3.00 Bohr mag/cell
     absolute magnetization    =     3.09 Bohr mag/cell
[tb_dev] Currently allocated     5.34E+00 Mbytes, locked:    0 /   9
[tb_pin] Currently allocated     0.00E+00 Mbytes, locked:    0 /   0

     iteration # 38     ecut=    60.00 Ry     beta= 0.40
     Davidson diagonalization with overlap

---- Real-time Memory Report at c_bands before calling an iterative solver
          2463 MiB given to the printing process from OS
          1528 MiB allocation reported by mallinfo(arena+hblkhd)
         57461 MiB available memory on the node where the printing process lives
     GPU memory used/free/total (MiB): 2334 / 13946 / 16280
------------------
     ethr =  7.15E-11,  avg # of iterations =  2.0

     negative rho (up, down):  4.936E-02 4.934E-02

     total cpu time spent up to now is      165.2 secs

     WARNING: integrated charge=    91.00098835, expected=    91.00000000

     total energy              =    -829.64172390 Ry
     estimated scf accuracy    <       0.00000501 Ry

     total magnetization       =     3.01 Bohr mag/cell
     absolute magnetization    =     3.10 Bohr mag/cell
[tb_dev] Currently allocated     5.34E+00 Mbytes, locked:    0 /   9
[tb_pin] Currently allocated     0.00E+00 Mbytes, locked:    0 /   0

     iteration # 39     ecut=    60.00 Ry     beta= 0.40
     Davidson diagonalization with overlap

---- Real-time Memory Report at c_bands before calling an iterative solver
          2467 MiB given to the printing process from OS
          1530 MiB allocation reported by mallinfo(arena+hblkhd)
         57461 MiB available memory on the node where the printing process lives
     GPU memory used/free/total (MiB): 2334 / 13946 / 16280
------------------
     ethr =  7.15E-11,  avg # of iterations =  2.0

     negative rho (up, down):  4.936E-02 4.934E-02

     total cpu time spent up to now is      169.6 secs

     WARNING: integrated charge=    91.00110027, expected=    91.00000000

     total energy              =    -829.64166923 Ry
     estimated scf accuracy    <       0.00000413 Ry

     total magnetization       =     3.01 Bohr mag/cell
     absolute magnetization    =     3.10 Bohr mag/cell
[tb_dev] Currently allocated     5.34E+00 Mbytes, locked:    0 /   9
[tb_pin] Currently allocated     0.00E+00 Mbytes, locked:    0 /   0

     iteration # 40     ecut=    60.00 Ry     beta= 0.40
[...]
     Minimization algorithm failed to find Fermi energy: reverting to bisection
     Possible cause: smearing is larger than the electronic band-gap.

     negative rho (up, down):  4.936E-02 4.934E-02

     total cpu time spent up to now is      279.8 secs

     WARNING: integrated charge=    91.00108141, expected=    91.00000000

     total energy              =    -829.64536559 Ry
     estimated scf accuracy    <       0.00000006 Ry

     total magnetization       =     3.00 Bohr mag/cell
     absolute magnetization    =     3.09 Bohr mag/cell
[tb_dev] Currently allocated     5.34E+00 Mbytes, locked:    0 /   9
[tb_pin] Currently allocated     0.00E+00 Mbytes, locked:    0 /   0

     iteration # 68     ecut=    60.00 Ry     beta= 0.40
     Davidson diagonalization with overlap

---- Real-time Memory Report at c_bands before calling an iterative solver
          2528 MiB given to the printing process from OS
          1598 MiB allocation reported by mallinfo(arena+hblkhd)
         57404 MiB available memory on the node where the printing process lives
     GPU memory used/free/total (MiB): 2334 / 13946 / 16280
------------------
     ethr =  6.39E-11,  avg # of iterations =  1.0

     negative rho (up, down):  4.936E-02 4.934E-02

     total cpu time spent up to now is      283.8 secs

     WARNING: integrated charge=    91.00108350, expected=    91.00000000

     total energy              =    -829.64166431 Ry
     estimated scf accuracy    <       0.00000404 Ry

     total magnetization       =     3.01 Bohr mag/cell
     absolute magnetization    =     3.10 Bohr mag/cell
[tb_dev] Currently allocated     5.34E+00 Mbytes, locked:    0 /   9
[tb_pin] Currently allocated     0.00E+00 Mbytes, locked:    0 /   0

     iteration # 69     ecut=    60.00 Ry     beta= 0.40
     Davidson diagonalization with overlap

---- Real-time Memory Report at c_bands before calling an iterative solver
          2531 MiB given to the printing process from OS
          1600 MiB allocation reported by mallinfo(arena+hblkhd)
         57402 MiB available memory on the node where the printing process lives
     GPU memory used/free/total (MiB): 2334 / 13946 / 16280
------------------
     ethr =  6.39E-11,  avg # of iterations =  1.0

     negative rho (up, down):  4.936E-02 4.934E-02

     total cpu time spent up to now is      287.6 secs

     WARNING: integrated charge=    91.00108746, expected=    91.00000000

     total energy              =    -829.64166418 Ry
     estimated scf accuracy    <       0.00000404 Ry

     total magnetization       =     3.01 Bohr mag/cell
     absolute magnetization    =     3.10 Bohr mag/cell
[tb_dev] Currently allocated     5.34E+00 Mbytes, locked:    0 /   9
[tb_pin] Currently allocated     0.00E+00 Mbytes, locked:    0 /   0

     iteration # 70     ecut=    60.00 Ry     beta= 0.40
     Davidson diagonalization with overlap

---- Real-time Memory Report at c_bands before calling an iterative solver
          2533 MiB given to the printing process from OS
          1602 MiB allocation reported by mallinfo(arena+hblkhd)
         57397 MiB available memory on the node where the printing process lives
     GPU memory used/free/total (MiB): 2334 / 13946 / 16280
------------------
     ethr =  6.39E-11,  avg # of iterations =  1.0

     negative rho (up, down):  4.936E-02 4.934E-02

     total cpu time spent up to now is      291.5 secs

     WARNING: integrated charge=    91.00108682, expected=    91.00000000

     total energy              =    -829.64166396 Ry
     estimated scf accuracy    <       0.00000404 Ry

     total magnetization       =     3.01 Bohr mag/cell
     absolute magnetization    =     3.10 Bohr mag/cell
[tb_dev] Currently allocated     5.34E+00 Mbytes, locked:    0 /   9
[tb_pin] Currently allocated     0.00E+00 Mbytes, locked:    0 /   0

     iteration # 71     ecut=    60.00 Ry     beta= 0.40
     Davidson diagonalization with overlap

---- Real-time Memory Report at c_bands before calling an iterative solver
          2534 MiB given to the printing process from OS
          1604 MiB allocation reported by mallinfo(arena+hblkhd)
         57394 MiB available memory on the node where the printing process lives
     GPU memory used/free/total (MiB): 2334 / 13946 / 16280
------------------
     ethr =  6.39E-11,  avg # of iterations =  1.0

     negative rho (up, down):  4.936E-02 4.934E-02

     total cpu time spent up to now is      295.4 secs

     WARNING: integrated charge=    91.00105184, expected=    91.00000000

     total energy              =    -829.64166400 Ry
     estimated scf accuracy    <       0.00000404 Ry

     total magnetization       =     3.01 Bohr mag/cell
     absolute magnetization    =     3.10 Bohr mag/cell
[tb_dev] Currently allocated     5.34E+00 Mbytes, locked:    0 /   9
[tb_pin] Currently allocated     0.00E+00 Mbytes, locked:    0 /   0

     iteration # 72     ecut=    60.00 Ry     beta= 0.40
     Davidson diagonalization with overlap

---- Real-time Memory Report at c_bands before calling an iterative solver
          2539 MiB given to the printing process from OS
          1606 MiB allocation reported by mallinfo(arena+hblkhd)
         57392 MiB available memory on the node where the printing process lives
     GPU memory used/free/total (MiB): 2334 / 13946 / 16280
------------------
     ethr =  6.39E-11,  avg # of iterations =  1.0

     negative rho (up, down):  4.936E-02 4.934E-02

     total cpu time spent up to now is      299.3 secs

     WARNING: integrated charge=    91.00106981, expected=    91.00000000

     total energy              =    -829.64166586 Ry
     estimated scf accuracy    <       0.00000407 Ry

     total magnetization       =     3.01 Bohr mag/cell
     absolute magnetization    =     3.10 Bohr mag/cell
[tb_dev] Currently allocated     5.34E+00 Mbytes, locked:    0 /   9
[tb_pin] Currently allocated     0.00E+00 Mbytes, locked:    0 /   0

     iteration # 73     ecut=    60.00 Ry     beta= 0.40
     Davidson diagonalization with overlap

---- Real-time Memory Report at c_bands before calling an iterative solver
          2541 MiB given to the printing process from OS
          1608 MiB allocation reported by mallinfo(arena+hblkhd)
         57392 MiB available memory on the node where the printing process lives
     GPU memory used/free/total (MiB): 2334 / 13946 / 16280
------------------
     ethr =  6.39E-11,  avg # of iterations =  1.0

     negative rho (up, down):  4.936E-02 4.934E-02

     total cpu time spent up to now is      303.2 secs

     WARNING: integrated charge=    91.00107888, expected=    91.00000000

     total energy              =    -829.64166478 Ry
     estimated scf accuracy    <       0.00000405 Ry

     total magnetization       =     3.01 Bohr mag/cell
     absolute magnetization    =     3.10 Bohr mag/cell
[tb_dev] Currently allocated     5.34E+00 Mbytes, locked:    0 /   9
[tb_pin] Currently allocated     0.00E+00 Mbytes, locked:    0 /   0

     iteration # 74     ecut=    60.00 Ry     beta= 0.40
     Davidson diagonalization with overlap

---- Real-time Memory Report at c_bands before calling an iterative solver
          2542 MiB given to the printing process from OS
          1610 MiB allocation reported by mallinfo(arena+hblkhd)
         57391 MiB available memory on the node where the printing process lives
     GPU memory used/free/total (MiB): 2334 / 13946 / 16280
------------------
     ethr =  6.39E-11,  avg # of iterations =  1.0

     negative rho (up, down):  4.936E-02 4.934E-02

     total cpu time spent up to now is      307.1 secs

     WARNING: integrated charge=    91.00108650, expected=    91.00000000

     total energy              =    -829.64166428 Ry
     estimated scf accuracy    <       0.00000404 Ry

     total magnetization       =     3.01 Bohr mag/cell
     absolute magnetization    =     3.10 Bohr mag/cell
[tb_dev] Currently allocated     5.34E+00 Mbytes, locked:    0 /   9
[tb_pin] Currently allocated     0.00E+00 Mbytes, locked:    0 /   0

     iteration # 75     ecut=    60.00 Ry     beta= 0.40
     Davidson diagonalization with overlap

---- Real-time Memory Report at c_bands before calling an iterative solver
          2545 MiB given to the printing process from OS
          1612 MiB allocation reported by mallinfo(arena+hblkhd)
         57390 MiB available memory on the node where the printing process lives
     GPU memory used/free/total (MiB): 2334 / 13946 / 16280
------------------
     ethr =  6.39E-11,  avg # of iterations =  1.0

     negative rho (up, down):  4.936E-02 4.934E-02

     total cpu time spent up to now is      310.9 secs

     WARNING: integrated charge=    91.00108978, expected=    91.00000000

     total energy              =    -829.64166399 Ry
     estimated scf accuracy    <       0.00000404 Ry

     total magnetization       =     3.01 Bohr mag/cell
     absolute magnetization    =     3.10 Bohr mag/cell
[tb_dev] Currently allocated     5.34E+00 Mbytes, locked:    0 /   9
[tb_pin] Currently allocated     0.00E+00 Mbytes, locked:    0 /   0

     iteration # 76     ecut=    60.00 Ry     beta= 0.40
     Davidson diagonalization with overlap

---- Real-time Memory Report at c_bands before calling an iterative solver
          2548 MiB given to the printing process from OS
          1614 MiB allocation reported by mallinfo(arena+hblkhd)
         57388 MiB available memory on the node where the printing process lives
     GPU memory used/free/total (MiB): 2334 / 13946 / 16280
------------------
     ethr =  6.39E-11,  avg # of iterations =  1.0

     negative rho (up, down):  4.937E-02 4.934E-02

     total cpu time spent up to now is      314.8 secs

     WARNING: integrated charge=    91.01085147, expected=    91.00000000

     total energy              =    -829.64166209 Ry
     estimated scf accuracy    <       0.00000404 Ry

     total magnetization       =     3.01 Bohr mag/cell
     absolute magnetization    =     3.10 Bohr mag/cell
[tb_dev] Currently allocated     5.34E+00 Mbytes, locked:    0 /   9
[tb_pin] Currently allocated     0.00E+00 Mbytes, locked:    0 /   0

     iteration # 77     ecut=    60.00 Ry     beta= 0.40
     Davidson diagonalization with overlap

---- Real-time Memory Report at c_bands before calling an iterative solver
          2549 MiB given to the printing process from OS
          1616 MiB allocation reported by mallinfo(arena+hblkhd)
         57381 MiB available memory on the node where the printing process lives
     GPU memory used/free/total (MiB): 2334 / 13946 / 16280
------------------
     ethr =  6.39E-11,  avg # of iterations =  5.5
     Minimization algorithm failed to find Fermi energy: reverting to bisection
     Possible cause: smearing is larger than the electronic band-gap.

     negative rho (up, down):  4.937E-02 4.934E-02

     total cpu time spent up to now is      322.0 secs

     WARNING: integrated charge=    91.00626506, expected=    91.00000000

     total energy              =    -829.64536573 Ry
     estimated scf accuracy    <       0.00000529 Ry

     total magnetization       =     3.00 Bohr mag/cell
     absolute magnetization    =     3.09 Bohr mag/cell
[tb_dev] Currently allocated     5.34E+00 Mbytes, locked:    0 /   9
[tb_pin] Currently allocated     0.00E+00 Mbytes, locked:    0 /   0

     iteration # 78     ecut=    60.00 Ry     beta= 0.40
     Davidson diagonalization with overlap

---- Real-time Memory Report at c_bands before calling an iterative solver
          2551 MiB given to the printing process from OS
          1618 MiB allocation reported by mallinfo(arena+hblkhd)
         57384 MiB available memory on the node where the printing process lives
     GPU memory used/free/total (MiB): 2334 / 13946 / 16280
------------------
     ethr =  6.39E-11,  avg # of iterations =  4.2
     Minimization algorithm failed to find Fermi energy: reverting to bisection
     Possible cause: smearing is larger than the electronic band-gap.

     negative rho (up, down):  4.936E-02 4.934E-02

     total cpu time spent up to now is      328.0 secs

     WARNING: integrated charge=    91.00393045, expected=    91.00000000

     total energy              =    -829.64536565 Ry
     estimated scf accuracy    <       0.00000198 Ry

     total magnetization       =     3.00 Bohr mag/cell
     absolute magnetization    =     3.09 Bohr mag/cell
[tb_dev] Currently allocated     5.34E+00 Mbytes, locked:    0 /   9
[tb_pin] Currently allocated     0.00E+00 Mbytes, locked:    0 /   0

     iteration # 79     ecut=    60.00 Ry     beta= 0.40
     Davidson diagonalization with overlap

---- Real-time Memory Report at c_bands before calling an iterative solver
          2553 MiB given to the printing process from OS
          1620 MiB allocation reported by mallinfo(arena+hblkhd)
         57383 MiB available memory on the node where the printing process lives
     GPU memory used/free/total (MiB): 2334 / 13946 / 16280
------------------
     ethr =  6.39E-11,  avg # of iterations =  3.5
     Minimization algorithm failed to find Fermi energy: reverting to bisection
     Possible cause: smearing is larger than the electronic band-gap.

     negative rho (up, down):  4.936E-02 4.934E-02

     total cpu time spent up to now is      333.6 secs

     WARNING: integrated charge=    91.00289177, expected=    91.00000000

     total energy              =    -829.64536564 Ry
     estimated scf accuracy    <       0.00000078 Ry

     total magnetization       =     3.00 Bohr mag/cell
     absolute magnetization    =     3.09 Bohr mag/cell
[tb_dev] Currently allocated     5.34E+00 Mbytes, locked:    0 /   9
[tb_pin] Currently allocated     0.00E+00 Mbytes, locked:    0 /   0

     iteration # 80     ecut=    60.00 Ry     beta= 0.40
     Davidson diagonalization with overlap

---- Real-time Memory Report at c_bands before calling an iterative solver
          2555 MiB given to the printing process from OS
          1622 MiB allocation reported by mallinfo(arena+hblkhd)
         57378 MiB available memory on the node where the printing process lives
     GPU memory used/free/total (MiB): 2334 / 13946 / 16280
------------------
     ethr =  6.39E-11,  avg # of iterations =  2.1
     Minimization algorithm failed to find Fermi energy: reverting to bisection
     Possible cause: smearing is larger than the electronic band-gap.

     negative rho (up, down):  4.936E-02 4.934E-02

     total cpu time spent up to now is      338.2 secs

     WARNING: integrated charge=    91.00266102, expected=    91.00000000

     total energy              =    -829.64536564 Ry
     estimated scf accuracy    <       0.00000043 Ry

     total magnetization       =     3.00 Bohr mag/cell
     absolute magnetization    =     3.09 Bohr mag/cell

     End of self-consistent calculation

     convergence NOT achieved after  80 iterations: stopping

     Writing config to output data dir ./out/aiida.save/
 
     init_run     :     23.84s CPU      5.79s WALL (       1 calls)
     electrons    :    826.29s CPU    331.51s WALL (       1 calls)

     Called by init_run:
     wfcinit      :      2.16s CPU      2.91s WALL (       1 calls)
                                        2.91s GPU  (       1 calls)
     wfcinit:atom :      0.03s CPU      0.06s WALL (      70 calls)
                                        0.05s GPU  (      70 calls)
     wfcinit:wfcr :      1.29s CPU      1.77s WALL (      70 calls)
                                        1.77s GPU  (      70 calls)
     potinit      :      8.46s CPU      0.80s WALL (       1 calls)
     hinit0       :      7.64s CPU      1.28s WALL (       1 calls)

     Called by electrons:
     c_bands      :    316.79s CPU    232.74s WALL (      80 calls)
     sum_band     :     52.63s CPU     56.69s WALL (      80 calls)
     v_of_rho     :     45.52s CPU      4.12s WALL (      81 calls)
     v_h          :      6.28s CPU      0.55s WALL (      81 calls)
     v_xc         :     39.23s CPU      3.56s WALL (      81 calls)
     newd         :     60.53s CPU      5.79s WALL (      81 calls)
                                        5.79s GPU  (      81 calls)
     PAW_pot      :    298.31s CPU     27.07s WALL (      81 calls)
     mix_rho      :     42.32s CPU      4.27s WALL (      80 calls)

     Called by c_bands:
     init_us_2    :     20.77s CPU     18.69s WALL (   11270 calls)
     init_us_2:gp :     20.52s CPU     18.50s WALL (   11270 calls)
     cegterg      :    256.73s CPU    192.13s WALL (    5600 calls)

     Called by sum_band:
     sum_band:wei :      0.53s CPU      0.53s WALL (      80 calls)
                                        0.53s GPU  (      80 calls)
     sum_band:loo :     43.88s CPU     47.78s WALL (      80 calls)
                                       47.78s GPU  (      80 calls)
     sum_band:buf :     12.95s CPU     13.50s WALL (    5600 calls)
                                       13.46s GPU  (    5600 calls)
     sum_band:ini :      7.63s CPU      8.82s WALL (    5600 calls)
                                        8.79s GPU  (    5600 calls)
     sum_band:cal :      0.16s CPU      1.58s WALL (    5600 calls)
                                        1.26s GPU  (    5600 calls)
     sum_band:bec :      1.49s CPU      1.62s WALL (    5600 calls)
                                        1.59s GPU  (    5600 calls)
     addusdens    :      5.73s CPU      5.87s WALL (      80 calls)
                                        5.87s GPU  (      80 calls)
     addusd:skk   :      0.03s CPU      0.04s WALL (     240 calls)
                                        0.03s GPU  (     240 calls)

     Called by *egterg:
     cdiaghg      :     82.54s CPU     65.99s WALL (   13700 calls)
                                       65.90s GPU  (   13700 calls)
     cegterg:over :      4.43s CPU      3.35s WALL (    8100 calls)
     cegterg:upda :      7.58s CPU      5.81s WALL (    8100 calls)
     cegterg:last :      2.66s CPU      2.07s WALL (    7461 calls)
     h_psi        :    145.08s CPU    105.38s WALL (   13770 calls)
                                      105.14s GPU  (   13770 calls)
     s_psi        :      3.10s CPU      4.80s WALL (   13770 calls)
                                        4.33s GPU  (   13770 calls)
     g_psi        :      0.09s CPU      0.51s WALL (    8100 calls)
                                        0.45s GPU  (    8100 calls)

     Called by h_psi:
     h_psi:calbec :      0.63s CPU      3.23s WALL (   13770 calls)
                                        3.14s GPU  (   13770 calls)
     vloc_psi     :    130.22s CPU     95.11s WALL (   13770 calls)
                                       95.02s GPU  (   13770 calls)
     add_vuspsi   :      4.64s CPU      5.56s WALL (   13770 calls)
                                        5.47s GPU  (   13770 calls)

     General routines
     calbec       :      0.56s CPU      0.43s WALL (   19370 calls)
     fft          :      2.78s CPU      0.64s WALL (    2023 calls)
                                        0.50s GPU  (    1861 calls)
     ffts         :      0.06s CPU      0.05s WALL (     322 calls)
                                        0.01s GPU  (     160 calls)
     fftw         :      3.34s CPU     78.17s WALL (  120846 calls)
                                       77.45s GPU  (  120846 calls)
     interpolate  :      5.88s CPU      0.52s WALL (     162 calls)
     davcio       :      0.55s CPU      0.38s WALL (      88 calls)
 
     Parallel routines

     PAW routines
     PAW_pot      :    298.31s CPU     27.07s WALL (      81 calls)
     PAW_symme    :      0.73s CPU      0.12s WALL (     161 calls)
 
     PWSCF        :  14m13.68s CPU   5m38.77s WALL

 
   This run was terminated on:  18:11: 1  22Oct2023            

=------------------------------------------------------------------------------=
   JOB DONE.
=------------------------------------------------------------------------------=
