
     Program PWSCF v.7.2 starts on 23Oct2023 at 20:41:59 

     This program is part of the open-source Quantum ESPRESSO suite
     for quantum simulation of materials; please cite
         "P. Giannozzi et al., J. Phys.:Condens. Matter 21 395502 (2009);
         "P. Giannozzi et al., J. Phys.:Condens. Matter 29 465901 (2017);
         "P. Giannozzi et al., J. Chem. Phys. 152 154105 (2020);
          URL http://www.quantum-espresso.org", 
     in publications or presentations arising from this work. More details at
     http://www.quantum-espresso.org/quote

     Parallel version (MPI & OpenMP), running on      12 processor cores
     Number of MPI processes:                 1
     Threads/MPI process:                    12

     MPI processes distributed on     1 nodes
     60424 MiB available memory on the printing compute node when the environment starts
 
     Reading input from aiida.in

     Current dimensions of program PWSCF are:
     Max number of different atomic species (ntypx) = 10
     Max number of k-points (npk) =  40000
     Max angular momentum in pseudopotentials (lmaxx) =  4
     file Nb.pbesol-spn-kjpaw_psl.0.3.0.UPF: wavefunction(s)  4S 4P renormalized
     Message from routine setup:
     using ibrav=0 with symmetry is DISCOURAGED, use correct ibrav instead
 
     Subspace diagonalization in iterative solution of the eigenvalue problem:
     a serial algorithm will be used

 
     G-vector sticks info
     --------------------
     sticks:   dense  smooth     PW     G-vecs:    dense   smooth      PW
     Sum       12669    6325   1751               556503   196733   28557
 
     Using Slab Decomposition
 


     bravais-lattice index     =            0
     lattice parameter (alat)  =      26.6984  a.u.
     unit-cell volume          =    5756.6582 (a.u.)^3
     number of atoms/cell      =           14
     number of atomic types    =            1
     number of electrons       =       182.00
     number of Kohn-Sham states=          109
     kinetic-energy cutoff     =      40.0000  Ry
     charge density cutoff     =     320.0000  Ry
     scf convergence threshold =      2.8E-09
     mixing beta               =       0.1000
     number of iterations used =            8  plain     mixing
     Exchange-correlation= SLA  PW   PSX  PSC
                           (   1   4  10   8   0   0   0)

     GPU acceleration is ACTIVE.


     GPU used by master process:

        Device Number: 0
        Device name: Tesla P100-PCIE-16GB
        Compute capability : 60
        Ratio of single to double precision performance  : 2
        Memory Clock Rate (KHz): 715000
        Memory Bus Width (bits): 4096
        Peak Memory Bandwidth (GB/s): 732.16

     celldm(1)=  26.698429  celldm(2)=   0.000000  celldm(3)=   0.000000
     celldm(4)=   0.000000  celldm(5)=   0.000000  celldm(6)=   0.000000

     crystal axes: (cart. coord. in units of alat)
               a(1) = (   0.102029   0.162587  -0.981405 )  
               a(2) = (   0.199052  -0.674583   0.000000 )  
               a(3) = (  -0.456909   0.000000   0.000000 )  

     reciprocal axes: (cart. coord. in units 2 pi/alat)
               b(1) = ( -0.000000 -0.000000 -1.018947 )  
               b(2) = ( -0.000000 -1.482397 -0.245585 )  
               b(3) = ( -2.188620 -0.645807 -0.334522 )  


     PseudoPot. # 1 for Nb read from file:
     ./pseudo/Nb.pbesol-spn-kjpaw_psl.0.3.0.UPF
     MD5 check sum: 3501bca1474143575298708b2d32ca28
     Pseudo is Projector augmented-wave + core cor, Zval = 13.0
     Generated using "atomic" code by A. Dal Corso  v.6.0 svn rev. 13079
     Shape of augmentation charge: PSQ
     Using radial grid of 1227 points,  6 beta functions with: 
                l(1) =   0
                l(2) =   0
                l(3) =   1
                l(4) =   1
                l(5) =   2
                l(6) =   2
     Q(r) pseudized with 0 coefficients 


     atomic species   valence    mass     pseudopotential
        Nb            13.00    92.90638     Nb( 1.00)

     Starting magnetic structure 
     atomic species   magnetization
        Nb           0.385

      2 Sym. Ops., with inversion, found


                                    s                        frac. trans.

      isym =  1     identity                                     

 cryst.   s( 1) = (     1          0          0      )
                  (     0          1          0      )
                  (     0          0          1      )

 cart.    s( 1) = (  1.0000000  0.0000000 -0.0000000 )
                  (  0.0000000  1.0000000  0.0000000 )
                  (  0.0000000  0.0000000  1.0000000 )


      isym =  2     inversion                                    

 cryst.   s( 2) = (    -1          0          0      )
                  (     0         -1          0      )
                  (     0          0         -1      )

 cart.    s( 2) = ( -1.0000000 -0.0000000  0.0000000 )
                  (  0.0000000 -1.0000000 -0.0000000 )
                  (  0.0000000  0.0000000 -1.0000000 )


   Cartesian axes

     site n.     atom                  positions (alat units)
         1           Nb  tau(   1) = (   0.0176389   0.3292752   0.5044421  )
         2           Nb  tau(   2) = (   0.1381889   0.1827210   0.4769628  )
         3           Nb  tau(   3) = (  -0.0198515   0.0985082   0.3582128  )
         4           Nb  tau(   4) = (   0.1756793   0.4134880   0.6231921  )
         5           Nb  tau(   5) = (   0.1825742   0.1430994   0.2600723  )
         6           Nb  tau(   6) = (  -0.0267464   0.3688968   0.7213326  )
         7           Nb  tau(   7) = (   0.2669081   0.5325066   0.2060950  )
         8           Nb  tau(   8) = (  -0.1110803  -0.0205104   0.7753099  )
         9           Nb  tau(   9) = (   0.1315842  -0.0720100   0.8744318  )
        10           Nb  tau(  10) = (   0.0242436   0.5840062   0.1069731  )
        11           Nb  tau(  11) = (   0.2232188   0.3823835   0.4200413  )
        12           Nb  tau(  12) = (  -0.0673910   0.1296127   0.5613636  )
        13           Nb  tau(  13) = (   0.2294401   0.3154595   0.0422004  )
        14           Nb  tau(  14) = (  -0.0736123   0.1965367   0.9392045  )

   Crystallographic axes

     site n.     atom                  positions (cryst. coord.)
         1           Nb  tau(   1) = ( -0.5140000 -0.6120000 -0.4200000  )
         2           Nb  tau(   2) = ( -0.4860000 -0.3880000 -0.5800000  )
         3           Nb  tau(   3) = ( -0.3650000 -0.2340000 -0.1400000  )
         4           Nb  tau(   4) = ( -0.6350000 -0.7660000 -0.8600000  )
         5           Nb  tau(   5) = ( -0.2650000 -0.2760000 -0.5790000  )
         6           Nb  tau(   6) = ( -0.7350000 -0.7240000 -0.4210000  )
         7           Nb  tau(   7) = ( -0.2100000 -0.8400000 -0.9970000  )
         8           Nb  tau(   8) = ( -0.7900000 -0.1600000 -0.0030000  )
         9           Nb  tau(   9) = ( -0.8910000 -0.1080000 -0.5340000  )
        10           Nb  tau(  10) = ( -0.1090000 -0.8920000 -0.4660000  )
        11           Nb  tau(  11) = ( -0.4280000 -0.6700000 -0.8760000  )
        12           Nb  tau(  12) = ( -0.5720000 -0.3300000 -0.1240000  )
        13           Nb  tau(  13) = ( -0.0430000 -0.4780000 -0.7200000  )
        14           Nb  tau(  14) = ( -0.9570000 -0.5220000 -0.2800000  )

     number of k points=    71  Marzari-Vanderbilt smearing, width (Ry)=  0.0100
                       cart. coord. in units 2pi/alat
        k(    1) = (  -0.0000000  -0.0000000  -0.0000000), wk =   0.0071429
        k(    2) = (  -0.3126600  -0.0922581  -0.0477889), wk =   0.0142857
        k(    3) = (  -0.6253201  -0.1845162  -0.0955777), wk =   0.0142857
        k(    4) = (  -0.9379801  -0.2767743  -0.1433666), wk =   0.0142857
        k(    5) = (  -0.0000000  -0.2964794  -0.0491170), wk =   0.0142857
        k(    6) = (  -0.3126600  -0.3887375  -0.0969059), wk =   0.0142857
        k(    7) = (  -0.6253201  -0.4809955  -0.1446948), wk =   0.0142857
        k(    8) = (  -0.9379801  -0.5732536  -0.1924836), wk =   0.0142857
        k(    9) = (   0.9379801  -0.0197051   0.0942496), wk =   0.0142857
        k(   10) = (   0.6253201  -0.1119632   0.0464607), wk =   0.0142857
        k(   11) = (   0.3126600  -0.2042213  -0.0013281), wk =   0.0142857
        k(   12) = (  -0.0000000  -0.5929588  -0.0982340), wk =   0.0142857
        k(   13) = (  -0.3126600  -0.6852168  -0.1460229), wk =   0.0142857
        k(   14) = (  -0.6253201  -0.7774749  -0.1938118), wk =   0.0142857
        k(   15) = (  -0.9379801  -0.8697330  -0.2416006), wk =   0.0142857
        k(   16) = (   0.9379801  -0.3161845   0.0451326), wk =   0.0142857
        k(   17) = (   0.6253201  -0.4084426  -0.0026563), wk =   0.0142857
        k(   18) = (   0.3126600  -0.5007007  -0.0504451), wk =   0.0142857
        k(   19) = (  -0.0000000  -0.0000000  -0.2547368), wk =   0.0142857
        k(   20) = (  -0.3126600  -0.0922581  -0.3025257), wk =   0.0142857
        k(   21) = (  -0.6253201  -0.1845162  -0.3503146), wk =   0.0142857
        k(   22) = (  -0.9379801  -0.2767743  -0.3981035), wk =   0.0142857
        k(   23) = (   0.9379801   0.2767743  -0.1113702), wk =   0.0142857
        k(   24) = (   0.6253201   0.1845162  -0.1591591), wk =   0.0142857
        k(   25) = (   0.3126600   0.0922581  -0.2069480), wk =   0.0142857
        k(   26) = (  -0.0000000  -0.2964794  -0.3038539), wk =   0.0142857
        k(   27) = (  -0.3126600  -0.3887375  -0.3516427), wk =   0.0142857
        k(   28) = (  -0.6253201  -0.4809955  -0.3994316), wk =   0.0142857
        k(   29) = (  -0.9379801  -0.5732536  -0.4472205), wk =   0.0142857
        k(   30) = (   0.9379801  -0.0197051  -0.1604872), wk =   0.0142857
        k(   31) = (   0.6253201  -0.1119632  -0.2082761), wk =   0.0142857
        k(   32) = (   0.3126600  -0.2042213  -0.2560650), wk =   0.0142857
        k(   33) = (  -0.0000000  -0.5929588  -0.3529709), wk =   0.0142857
        k(   34) = (  -0.3126600  -0.6852168  -0.4007597), wk =   0.0142857
        k(   35) = (  -0.6253201  -0.7774749  -0.4485486), wk =   0.0142857
        k(   36) = (  -0.9379801  -0.8697330  -0.4963375), wk =   0.0142857
        k(   37) = (   0.9379801  -0.3161845  -0.2096043), wk =   0.0142857
        k(   38) = (   0.6253201  -0.4084426  -0.2573931), wk =   0.0142857
        k(   39) = (   0.3126600  -0.5007007  -0.3051820), wk =   0.0142857
        k(   40) = (   0.0000000   0.5929588  -0.1565028), wk =   0.0142857
        k(   41) = (  -0.3126600   0.5007007  -0.2042917), wk =   0.0142857
        k(   42) = (  -0.6253201   0.4084426  -0.2520806), wk =   0.0142857
        k(   43) = (  -0.9379801   0.3161845  -0.2998694), wk =   0.0142857
        k(   44) = (   0.9379801   0.8697330  -0.0131362), wk =   0.0142857
        k(   45) = (   0.6253201   0.7774749  -0.0609251), wk =   0.0142857
        k(   46) = (   0.3126600   0.6852168  -0.1087140), wk =   0.0142857
        k(   47) = (   0.0000000   0.2964794  -0.2056198), wk =   0.0142857
        k(   48) = (  -0.3126600   0.2042213  -0.2534087), wk =   0.0142857
        k(   49) = (  -0.6253201   0.1119632  -0.3011976), wk =   0.0142857
        k(   50) = (  -0.9379801   0.0197051  -0.3489865), wk =   0.0142857
        k(   51) = (   0.9379801   0.5732536  -0.0622532), wk =   0.0142857
        k(   52) = (   0.6253201   0.4809955  -0.1100421), wk =   0.0142857
        k(   53) = (   0.3126600   0.3887375  -0.1578310), wk =   0.0142857
        k(   54) = (   0.0000000   0.0000000   0.5094737), wk =   0.0071429
        k(   55) = (  -0.3126600  -0.0922581   0.4616848), wk =   0.0142857
        k(   56) = (  -0.6253201  -0.1845162   0.4138960), wk =   0.0142857
        k(   57) = (  -0.9379801  -0.2767743   0.3661071), wk =   0.0142857
        k(   58) = (   0.0000000  -0.2964794   0.4603567), wk =   0.0142857
        k(   59) = (  -0.3126600  -0.3887375   0.4125678), wk =   0.0142857
        k(   60) = (  -0.6253201  -0.4809955   0.3647789), wk =   0.0142857
        k(   61) = (  -0.9379801  -0.5732536   0.3169901), wk =   0.0142857
        k(   62) = (   0.9379801  -0.0197051   0.6037233), wk =   0.0142857
        k(   63) = (   0.6253201  -0.1119632   0.5559344), wk =   0.0142857
        k(   64) = (   0.3126600  -0.2042213   0.5081456), wk =   0.0142857
        k(   65) = (   0.0000000  -0.5929588   0.4112397), wk =   0.0142857
        k(   66) = (  -0.3126600  -0.6852168   0.3634508), wk =   0.0142857
        k(   67) = (  -0.6253201  -0.7774749   0.3156619), wk =   0.0142857
        k(   68) = (  -0.9379801  -0.8697330   0.2678731), wk =   0.0142857
        k(   69) = (   0.9379801  -0.3161845   0.5546063), wk =   0.0142857
        k(   70) = (   0.6253201  -0.4084426   0.5068174), wk =   0.0142857
        k(   71) = (   0.3126600  -0.5007007   0.4590285), wk =   0.0142857

                       cryst. coord.
        k(    1) = (   0.0000000   0.0000000   0.0000000), wk =   0.0071429
        k(    2) = (   0.0000000   0.0000000   0.1428571), wk =   0.0142857
        k(    3) = (   0.0000000   0.0000000   0.2857143), wk =   0.0142857
        k(    4) = (   0.0000000   0.0000000   0.4285714), wk =   0.0142857
        k(    5) = (   0.0000000   0.2000000   0.0000000), wk =   0.0142857
        k(    6) = (   0.0000000   0.2000000   0.1428571), wk =   0.0142857
        k(    7) = (  -0.0000000   0.2000000   0.2857143), wk =   0.0142857
        k(    8) = (   0.0000000   0.2000000   0.4285714), wk =   0.0142857
        k(    9) = (  -0.0000000   0.2000000  -0.4285714), wk =   0.0142857
        k(   10) = (  -0.0000000   0.2000000  -0.2857143), wk =   0.0142857
        k(   11) = (   0.0000000   0.2000000  -0.1428571), wk =   0.0142857
        k(   12) = (   0.0000000   0.4000000   0.0000000), wk =   0.0142857
        k(   13) = (   0.0000000   0.4000000   0.1428571), wk =   0.0142857
        k(   14) = (   0.0000000   0.4000000   0.2857143), wk =   0.0142857
        k(   15) = (   0.0000000   0.4000000   0.4285714), wk =   0.0142857
        k(   16) = (  -0.0000000   0.4000000  -0.4285714), wk =   0.0142857
        k(   17) = (   0.0000000   0.4000000  -0.2857143), wk =   0.0142857
        k(   18) = (   0.0000000   0.4000000  -0.1428571), wk =   0.0142857
        k(   19) = (   0.2500000   0.0000000   0.0000000), wk =   0.0142857
        k(   20) = (   0.2500000   0.0000000   0.1428571), wk =   0.0142857
        k(   21) = (   0.2500000   0.0000000   0.2857143), wk =   0.0142857
        k(   22) = (   0.2500000   0.0000000   0.4285714), wk =   0.0142857
        k(   23) = (   0.2500000  -0.0000000  -0.4285714), wk =   0.0142857
        k(   24) = (   0.2500000  -0.0000000  -0.2857143), wk =   0.0142857
        k(   25) = (   0.2500000  -0.0000000  -0.1428571), wk =   0.0142857
        k(   26) = (   0.2500000   0.2000000   0.0000000), wk =   0.0142857
        k(   27) = (   0.2500000   0.2000000   0.1428571), wk =   0.0142857
        k(   28) = (   0.2500000   0.2000000   0.2857143), wk =   0.0142857
        k(   29) = (   0.2500000   0.2000000   0.4285714), wk =   0.0142857
        k(   30) = (   0.2500000   0.2000000  -0.4285714), wk =   0.0142857
        k(   31) = (   0.2500000   0.2000000  -0.2857143), wk =   0.0142857
        k(   32) = (   0.2500000   0.2000000  -0.1428571), wk =   0.0142857
        k(   33) = (   0.2500000   0.4000000   0.0000000), wk =   0.0142857
        k(   34) = (   0.2500000   0.4000000   0.1428571), wk =   0.0142857
        k(   35) = (   0.2500000   0.4000000   0.2857143), wk =   0.0142857
        k(   36) = (   0.2500000   0.4000000   0.4285714), wk =   0.0142857
        k(   37) = (   0.2500000   0.4000000  -0.4285714), wk =   0.0142857
        k(   38) = (   0.2500000   0.4000000  -0.2857143), wk =   0.0142857
        k(   39) = (   0.2500000   0.4000000  -0.1428571), wk =   0.0142857
        k(   40) = (   0.2500000  -0.4000000   0.0000000), wk =   0.0142857
        k(   41) = (   0.2500000  -0.4000000   0.1428571), wk =   0.0142857
        k(   42) = (   0.2500000  -0.4000000   0.2857143), wk =   0.0142857
        k(   43) = (   0.2500000  -0.4000000   0.4285714), wk =   0.0142857
        k(   44) = (   0.2500000  -0.4000000  -0.4285714), wk =   0.0142857
        k(   45) = (   0.2500000  -0.4000000  -0.2857143), wk =   0.0142857
        k(   46) = (   0.2500000  -0.4000000  -0.1428571), wk =   0.0142857
        k(   47) = (   0.2500000  -0.2000000   0.0000000), wk =   0.0142857
        k(   48) = (   0.2500000  -0.2000000   0.1428571), wk =   0.0142857
        k(   49) = (   0.2500000  -0.2000000   0.2857143), wk =   0.0142857
        k(   50) = (   0.2500000  -0.2000000   0.4285714), wk =   0.0142857
        k(   51) = (   0.2500000  -0.2000000  -0.4285714), wk =   0.0142857
        k(   52) = (   0.2500000  -0.2000000  -0.2857143), wk =   0.0142857
        k(   53) = (   0.2500000  -0.2000000  -0.1428571), wk =   0.0142857
        k(   54) = (  -0.5000000   0.0000000   0.0000000), wk =   0.0071429
        k(   55) = (  -0.5000000   0.0000000   0.1428571), wk =   0.0142857
        k(   56) = (  -0.5000000   0.0000000   0.2857143), wk =   0.0142857
        k(   57) = (  -0.5000000   0.0000000   0.4285714), wk =   0.0142857
        k(   58) = (  -0.5000000   0.2000000   0.0000000), wk =   0.0142857
        k(   59) = (  -0.5000000   0.2000000   0.1428571), wk =   0.0142857
        k(   60) = (  -0.5000000   0.2000000   0.2857143), wk =   0.0142857
        k(   61) = (  -0.5000000   0.2000000   0.4285714), wk =   0.0142857
        k(   62) = (  -0.5000000   0.2000000  -0.4285714), wk =   0.0142857
        k(   63) = (  -0.5000000   0.2000000  -0.2857143), wk =   0.0142857
        k(   64) = (  -0.5000000   0.2000000  -0.1428571), wk =   0.0142857
        k(   65) = (  -0.5000000   0.4000000   0.0000000), wk =   0.0142857
        k(   66) = (  -0.5000000   0.4000000   0.1428571), wk =   0.0142857
        k(   67) = (  -0.5000000   0.4000000   0.2857143), wk =   0.0142857
        k(   68) = (  -0.5000000   0.4000000   0.4285714), wk =   0.0142857
        k(   69) = (  -0.5000000   0.4000000  -0.4285714), wk =   0.0142857
        k(   70) = (  -0.5000000   0.4000000  -0.2857143), wk =   0.0142857
        k(   71) = (  -0.5000000   0.4000000  -0.1428571), wk =   0.0142857

     Dense  grid:   556503 G-vectors     FFT dimensions: ( 160, 108,  72)

     Smooth grid:   196733 G-vectors     FFT dimensions: ( 108,  75,  50)

     Dynamical RAM for                 wfc:      40.90 MB

     Dynamical RAM for     wfc (w. buffer):    5849.17 MB

     Dynamical RAM for           str. fact:       8.49 MB

     Dynamical RAM for           local pot:       0.00 MB

     Dynamical RAM for          nlocal pot:      94.57 MB

     Dynamical RAM for                qrad:       1.44 MB

     Dynamical RAM for          rho,v,vnew:     107.90 MB

     Dynamical RAM for               rhoin:      35.97 MB

     Dynamical RAM for            rho*nmix:     271.73 MB

     Dynamical RAM for           G-vectors:      33.34 MB

     Dynamical RAM for          h,s,v(r/c):       2.18 MB

     Dynamical RAM for          <psi|beta>:       0.42 MB

     Dynamical RAM for                 psi:      81.81 MB

     Dynamical RAM for                hpsi:      81.81 MB

     Dynamical RAM for                spsi:      81.81 MB

     Dynamical RAM for      wfcinit/wfcrot:      82.08 MB

     Dynamical RAM for           addusdens:    1706.80 MB

     Dynamical RAM for          addusforce:    1927.69 MB

     Dynamical RAM for         addusstress:    1719.54 MB

     Estimated static dynamical RAM per process >       6.06 GB

     Estimated max dynamical RAM per process >       8.21 GB

     Atomic positions and unit cell read from directory:
     ./out/aiida.save/
 

     Check: negative core charge=   -0.000002
     Generating pointlists ...
     new r_m :   0.0791 (alat units)  2.1117 (a.u.) for type    1

     The initial density is read from file :
     ./out/aiida.save/charge-density

     Starting wfcs from file
     Checking if some PAW data can be deallocated... 

     total cpu time spent up to now is       14.1 secs

     per-process dynamical memory:   733.8 Mb

     Self-consistent Calculation
[tb_dev] Currently allocated     1.07E-04 Mbytes, locked:    0 /   2
[tb_pin] Currently allocated     0.00E+00 Mbytes, locked:    0 /   0

     iteration #  1     ecut=    40.00 Ry     beta= 0.10
     Davidson diagonalization with overlap

---- Real-time Memory Report at c_bands before calling an iterative solver
          1502 MiB given to the printing process from OS
           739 MiB allocation reported by mallinfo(arena+hblkhd)
         58595 MiB available memory on the node where the printing process lives
     GPU memory used/free/total (MiB): 1726 / 14554 / 16280
------------------
     ethr =  1.00E-05,  avg # of iterations =  1.0

     Threshold (ethr) on eigenvalues was too large:
     Diagonalizing with lowered threshold

     Davidson diagonalization with overlap

---- Real-time Memory Report at c_bands before calling an iterative solver
          7724 MiB given to the printing process from OS
         -1322 MiB allocation reported by mallinfo(arena+hblkhd)
         45474 MiB available memory on the node where the printing process lives
     GPU memory used/free/total (MiB): 4278 / 12002 / 16280
------------------
     ethr =  3.59E-07,  avg # of iterations =  1.0

     total cpu time spent up to now is       75.9 secs

     total energy              =   -4615.62075532 Ry
     estimated scf accuracy    <       0.00065806 Ry

     total magnetization       =    32.96 Bohr mag/cell
     absolute magnetization    =    36.19 Bohr mag/cell
[tb_dev] Currently allocated     2.38E+01 Mbytes, locked:    0 /  12
[tb_pin] Currently allocated     0.00E+00 Mbytes, locked:    0 /   0

     iteration #  2     ecut=    40.00 Ry     beta= 0.10
     Davidson diagonalization with overlap

---- Real-time Memory Report at c_bands before calling an iterative solver
          7905 MiB given to the printing process from OS
         -1205 MiB allocation reported by mallinfo(arena+hblkhd)
         45357 MiB available memory on the node where the printing process lives
     GPU memory used/free/total (MiB): 4288 / 11992 / 16280
------------------
     c_bands:  1 eigenvalues not converged
     c_bands:  1 eigenvalues not converged
     ethr =  3.62E-07,  avg # of iterations =  4.5

     total cpu time spent up to now is      112.8 secs

     total energy              =   -4615.62083499 Ry
     estimated scf accuracy    <       0.00062337 Ry

     total magnetization       =    32.90 Bohr mag/cell
     absolute magnetization    =    36.16 Bohr mag/cell
[tb_dev] Currently allocated     2.38E+01 Mbytes, locked:    0 /  12
[tb_pin] Currently allocated     0.00E+00 Mbytes, locked:    0 /   0

     iteration #  3     ecut=    40.00 Ry     beta= 0.10
     Davidson diagonalization with overlap

---- Real-time Memory Report at c_bands before calling an iterative solver
          7977 MiB given to the printing process from OS
         -1155 MiB allocation reported by mallinfo(arena+hblkhd)
         45295 MiB available memory on the node where the printing process lives
     GPU memory used/free/total (MiB): 4958 / 11322 / 16280
------------------
     ethr =  3.43E-07,  avg # of iterations =  1.5

     total cpu time spent up to now is      143.8 secs

     total energy              =   -4615.62087693 Ry
     estimated scf accuracy    <       0.00011498 Ry

     total magnetization       =    32.93 Bohr mag/cell
     absolute magnetization    =    36.17 Bohr mag/cell
[tb_dev] Currently allocated     2.38E+01 Mbytes, locked:    0 /  12
[tb_pin] Currently allocated     0.00E+00 Mbytes, locked:    0 /   0

     iteration #  4     ecut=    40.00 Ry     beta= 0.10
     Davidson diagonalization with overlap

---- Real-time Memory Report at c_bands before calling an iterative solver
          8021 MiB given to the printing process from OS
         -1111 MiB allocation reported by mallinfo(arena+hblkhd)
         45252 MiB available memory on the node where the printing process lives
     GPU memory used/free/total (MiB): 4958 / 11322 / 16280
------------------
     c_bands:  1 eigenvalues not converged
     c_bands:  1 eigenvalues not converged
     ethr =  6.32E-08,  avg # of iterations =  3.4

     total cpu time spent up to now is      178.1 secs

     total energy              =   -4615.62098327 Ry
     estimated scf accuracy    <       0.00007659 Ry

     total magnetization       =    32.92 Bohr mag/cell
     absolute magnetization    =    36.17 Bohr mag/cell
[tb_dev] Currently allocated     2.38E+01 Mbytes, locked:    0 /  12
[tb_pin] Currently allocated     0.00E+00 Mbytes, locked:    0 /   0

     iteration #  5     ecut=    40.00 Ry     beta= 0.10
     Davidson diagonalization with overlap

---- Real-time Memory Report at c_bands before calling an iterative solver
          8067 MiB given to the printing process from OS
         -1064 MiB allocation reported by mallinfo(arena+hblkhd)
         45208 MiB available memory on the node where the printing process lives
     GPU memory used/free/total (MiB): 4958 / 11322 / 16280
------------------
     c_bands:  1 eigenvalues not converged
     c_bands:  1 eigenvalues not converged
     c_bands:  1 eigenvalues not converged
     c_bands:  1 eigenvalues not converged
     c_bands:  1 eigenvalues not converged
     c_bands:  1 eigenvalues not converged
     c_bands:  1 eigenvalues not converged
     c_bands:  2 eigenvalues not converged
     c_bands:  1 eigenvalues not converged
     c_bands:  1 eigenvalues not converged
     c_bands:  1 eigenvalues not converged
     c_bands:  1 eigenvalues not converged
     c_bands:  1 eigenvalues not converged
     c_bands:  1 eigenvalues not converged
     c_bands:  1 eigenvalues not converged
     c_bands:  1 eigenvalues not converged
     c_bands:  1 eigenvalues not converged
     c_bands:  1 eigenvalues not converged
     c_bands:  1 eigenvalues not converged
     c_bands:  2 eigenvalues not converged
     c_bands:  1 eigenvalues not converged
     c_bands:  1 eigenvalues not converged
     ethr =  4.21E-08,  avg # of iterations = 10.1

     total cpu time spent up to now is      231.6 secs

     total energy              =   -4615.62112711 Ry
     estimated scf accuracy    <       0.00025172 Ry

     total magnetization       =    32.91 Bohr mag/cell
     absolute magnetization    =    36.19 Bohr mag/cell
[tb_dev] Currently allocated     2.38E+01 Mbytes, locked:    0 /  12
[tb_pin] Currently allocated     0.00E+00 Mbytes, locked:    0 /   0

     iteration #  6     ecut=    40.00 Ry     beta= 0.10
     Davidson diagonalization with overlap

---- Real-time Memory Report at c_bands before calling an iterative solver
          8114 MiB given to the printing process from OS
         -1016 MiB allocation reported by mallinfo(arena+hblkhd)
         45162 MiB available memory on the node where the printing process lives
     GPU memory used/free/total (MiB): 4958 / 11322 / 16280
------------------
     c_bands:  1 eigenvalues not converged
     c_bands:  1 eigenvalues not converged
     c_bands:  1 eigenvalues not converged
     c_bands:  1 eigenvalues not converged
     c_bands:  2 eigenvalues not converged
     c_bands:  1 eigenvalues not converged
     c_bands:  2 eigenvalues not converged
     c_bands:  1 eigenvalues not converged
     c_bands:  2 eigenvalues not converged
     c_bands:  1 eigenvalues not converged
     c_bands:  2 eigenvalues not converged
     c_bands:  1 eigenvalues not converged
     c_bands:  1 eigenvalues not converged
     c_bands:  1 eigenvalues not converged
     ethr =  4.21E-08,  avg # of iterations =  8.8

     total cpu time spent up to now is      280.8 secs

     total energy              =   -4615.62114624 Ry
     estimated scf accuracy    <       0.00029287 Ry

     total magnetization       =    32.88 Bohr mag/cell
     absolute magnetization    =    36.21 Bohr mag/cell
[tb_dev] Currently allocated     2.38E+01 Mbytes, locked:    0 /  12
[tb_pin] Currently allocated     0.00E+00 Mbytes, locked:    0 /   0

     iteration #  7     ecut=    40.00 Ry     beta= 0.10
     Davidson diagonalization with overlap

---- Real-time Memory Report at c_bands before calling an iterative solver
          8155 MiB given to the printing process from OS
          -975 MiB allocation reported by mallinfo(arena+hblkhd)
         45124 MiB available memory on the node where the printing process lives
     GPU memory used/free/total (MiB): 4958 / 11322 / 16280
------------------
     c_bands:  1 eigenvalues not converged
     ethr =  4.21E-08,  avg # of iterations =  1.3

     total cpu time spent up to now is      311.7 secs

     total energy              =   -4615.62125026 Ry
     estimated scf accuracy    <       0.00032445 Ry

     total magnetization       =    32.88 Bohr mag/cell
     absolute magnetization    =    36.21 Bohr mag/cell
[tb_dev] Currently allocated     2.38E+01 Mbytes, locked:    0 /  12
[tb_pin] Currently allocated     0.00E+00 Mbytes, locked:    0 /   0

     iteration #  8     ecut=    40.00 Ry     beta= 0.10
     Davidson diagonalization with overlap

---- Real-time Memory Report at c_bands before calling an iterative solver
          8201 MiB given to the printing process from OS
          -928 MiB allocation reported by mallinfo(arena+hblkhd)
         45078 MiB available memory on the node where the printing process lives
     GPU memory used/free/total (MiB): 4958 / 11322 / 16280
------------------
     c_bands:  1 eigenvalues not converged
     c_bands:  1 eigenvalues not converged
     c_bands:  1 eigenvalues not converged
     c_bands:  1 eigenvalues not converged
     c_bands:  1 eigenvalues not converged
     c_bands:  1 eigenvalues not converged
     c_bands:  1 eigenvalues not converged
     c_bands:  1 eigenvalues not converged
     c_bands:  2 eigenvalues not converged
     c_bands:  1 eigenvalues not converged
     c_bands:  1 eigenvalues not converged
     c_bands:  1 eigenvalues not converged
     c_bands:  1 eigenvalues not converged
     c_bands:  1 eigenvalues not converged
     c_bands:  1 eigenvalues not converged
     c_bands:  1 eigenvalues not converged
     c_bands:  1 eigenvalues not converged
     c_bands:  1 eigenvalues not converged
     c_bands:  1 eigenvalues not converged
     c_bands:  1 eigenvalues not converged
     c_bands:  2 eigenvalues not converged
     c_bands:  1 eigenvalues not converged
     c_bands:  1 eigenvalues not converged
     ethr =  4.21E-08,  avg # of iterations =  8.5

     total cpu time spent up to now is      360.4 secs

     total energy              =   -4615.62139216 Ry
     estimated scf accuracy    <       0.00091250 Ry

     total magnetization       =    32.87 Bohr mag/cell
     absolute magnetization    =    36.23 Bohr mag/cell
[tb_dev] Currently allocated     2.38E+01 Mbytes, locked:    0 /  12
[tb_pin] Currently allocated     0.00E+00 Mbytes, locked:    0 /   0

     iteration #  9     ecut=    40.00 Ry     beta= 0.10
     Davidson diagonalization with overlap

---- Real-time Memory Report at c_bands before calling an iterative solver
          8243 MiB given to the printing process from OS
          -887 MiB allocation reported by mallinfo(arena+hblkhd)
         45034 MiB available memory on the node where the printing process lives
     GPU memory used/free/total (MiB): 4958 / 11322 / 16280
------------------
     c_bands:  1 eigenvalues not converged
     c_bands:  1 eigenvalues not converged
     c_bands:  1 eigenvalues not converged
     c_bands:  1 eigenvalues not converged
     c_bands:  1 eigenvalues not converged
     c_bands:  1 eigenvalues not converged
     c_bands:  1 eigenvalues not converged
     c_bands:  1 eigenvalues not converged
     c_bands:  1 eigenvalues not converged
     c_bands:  1 eigenvalues not converged
     c_bands:  1 eigenvalues not converged
     c_bands:  1 eigenvalues not converged
     c_bands:  1 eigenvalues not converged
     c_bands:  1 eigenvalues not converged
     c_bands:  2 eigenvalues not converged
     c_bands:  1 eigenvalues not converged
     c_bands:  1 eigenvalues not converged
     c_bands:  2 eigenvalues not converged
     c_bands:  1 eigenvalues not converged
     ethr =  4.21E-08,  avg # of iterations = 10.9

     total cpu time spent up to now is      415.5 secs

     total energy              =   -4615.62118610 Ry
     estimated scf accuracy    <       0.00090041 Ry

     total magnetization       =    32.82 Bohr mag/cell
     absolute magnetization    =    36.24 Bohr mag/cell
[tb_dev] Currently allocated     2.38E+01 Mbytes, locked:    0 /  12
[tb_pin] Currently allocated     0.00E+00 Mbytes, locked:    0 /   0

     iteration # 10     ecut=    40.00 Ry     beta= 0.10
     Davidson diagonalization with overlap

---- Real-time Memory Report at c_bands before calling an iterative solver
          8284 MiB given to the printing process from OS
          -846 MiB allocation reported by mallinfo(arena+hblkhd)
         44993 MiB available memory on the node where the printing process lives
     GPU memory used/free/total (MiB): 4958 / 11322 / 16280
------------------
     c_bands:  1 eigenvalues not converged
     c_bands:  1 eigenvalues not converged
     c_bands:  1 eigenvalues not converged
     c_bands:  1 eigenvalues not converged
     c_bands:  2 eigenvalues not converged
     c_bands:  1 eigenvalues not converged
     c_bands:  1 eigenvalues not converged
     c_bands:  1 eigenvalues not converged
     c_bands:  1 eigenvalues not converged
     c_bands:  1 eigenvalues not converged
     c_bands:  1 eigenvalues not converged
     c_bands:  2 eigenvalues not converged
     c_bands:  1 eigenvalues not converged
     c_bands:  1 eigenvalues not converged
     ethr =  4.21E-08,  avg # of iterations =  9.8

     total cpu time spent up to now is      466.9 secs

     total energy              =   -4615.62135429 Ry
     estimated scf accuracy    <       0.00130974 Ry

     total magnetization       =    32.87 Bohr mag/cell
     absolute magnetization    =    36.23 Bohr mag/cell
[tb_dev] Currently allocated     2.38E+01 Mbytes, locked:    0 /  12
[tb_pin] Currently allocated     0.00E+00 Mbytes, locked:    0 /   0

     iteration # 11     ecut=    40.00 Ry     beta= 0.10
     Davidson diagonalization with overlap

---- Real-time Memory Report at c_bands before calling an iterative solver
          8320 MiB given to the printing process from OS
          -817 MiB allocation reported by mallinfo(arena+hblkhd)
         44968 MiB available memory on the node where the printing process lives
     GPU memory used/free/total (MiB): 4958 / 11322 / 16280
------------------
     c_bands:  1 eigenvalues not converged
     c_bands:  1 eigenvalues not converged
     ethr =  4.21E-08,  avg # of iterations =  6.7

     total cpu time spent up to now is      509.6 secs

     total energy              =   -4615.62148439 Ry
     estimated scf accuracy    <       0.00165200 Ry

     total magnetization       =    32.85 Bohr mag/cell
     absolute magnetization    =    36.23 Bohr mag/cell
[tb_dev] Currently allocated     2.38E+01 Mbytes, locked:    0 /  12
[tb_pin] Currently allocated     0.00E+00 Mbytes, locked:    0 /   0

     iteration # 12     ecut=    40.00 Ry     beta= 0.10
     Davidson diagonalization with overlap

---- Real-time Memory Report at c_bands before calling an iterative solver
          8348 MiB given to the printing process from OS
          -789 MiB allocation reported by mallinfo(arena+hblkhd)
         44938 MiB available memory on the node where the printing process lives
     GPU memory used/free/total (MiB): 4958 / 11322 / 16280
------------------
     c_bands:  2 eigenvalues not converged
     c_bands:  3 eigenvalues not converged
     c_bands:  1 eigenvalues not converged
     c_bands:  2 eigenvalues not converged
     c_bands:  2 eigenvalues not converged
     c_bands:  1 eigenvalues not converged
     c_bands:  1 eigenvalues not converged
     c_bands:  1 eigenvalues not converged
     c_bands:  3 eigenvalues not converged
     c_bands:  1 eigenvalues not converged
     c_bands:  1 eigenvalues not converged
     c_bands:  1 eigenvalues not converged
     c_bands:  2 eigenvalues not converged
     c_bands:  3 eigenvalues not converged
     c_bands:  2 eigenvalues not converged
     c_bands:  3 eigenvalues not converged
     c_bands:  1 eigenvalues not converged
     c_bands:  1 eigenvalues not converged
     c_bands:  2 eigenvalues not converged
     c_bands:  3 eigenvalues not converged
     c_bands:  2 eigenvalues not converged
     c_bands:  1 eigenvalues not converged
     c_bands:  1 eigenvalues not converged
     c_bands:  1 eigenvalues not converged
     c_bands:  1 eigenvalues not converged
     c_bands:  3 eigenvalues not converged
     c_bands:  1 eigenvalues not converged
     c_bands:  1 eigenvalues not converged
     c_bands:  1 eigenvalues not converged
     c_bands:  3 eigenvalues not converged
     c_bands:  2 eigenvalues not converged
     c_bands:  1 eigenvalues not converged
     c_bands:  1 eigenvalues not converged
     c_bands:  1 eigenvalues not converged
     c_bands:  3 eigenvalues not converged
     c_bands:  2 eigenvalues not converged
     c_bands:  2 eigenvalues not converged
     c_bands:  2 eigenvalues not converged
     c_bands:  2 eigenvalues not converged
     c_bands:  3 eigenvalues not converged
     c_bands:  3 eigenvalues not converged
     c_bands:  1 eigenvalues not converged
     c_bands:  1 eigenvalues not converged
     c_bands:  2 eigenvalues not converged
     c_bands:  2 eigenvalues not converged
     c_bands:  2 eigenvalues not converged
     c_bands:  1 eigenvalues not converged
     c_bands:  1 eigenvalues not converged
     c_bands:  2 eigenvalues not converged
     c_bands:  1 eigenvalues not converged
     c_bands:  1 eigenvalues not converged
     c_bands:  2 eigenvalues not converged
     c_bands:  2 eigenvalues not converged
     c_bands:  3 eigenvalues not converged
     c_bands:  1 eigenvalues not converged
     c_bands:  1 eigenvalues not converged
     c_bands:  2 eigenvalues not converged
     c_bands:  2 eigenvalues not converged
     ethr =  4.21E-08,  avg # of iterations = 13.8

     total cpu time spent up to now is      576.7 secs

     total energy              =   -4615.62192593 Ry
     estimated scf accuracy    <       0.00072418 Ry

     total magnetization       =    32.71 Bohr mag/cell
     absolute magnetization    =    36.26 Bohr mag/cell
[tb_dev] Currently allocated     2.38E+01 Mbytes, locked:    0 /  12
[tb_pin] Currently allocated     0.00E+00 Mbytes, locked:    0 /   0

     iteration # 13     ecut=    40.00 Ry     beta= 0.10
     Davidson diagonalization with overlap

---- Real-time Memory Report at c_bands before calling an iterative solver
          8377 MiB given to the printing process from OS
          -760 MiB allocation reported by mallinfo(arena+hblkhd)
         44912 MiB available memory on the node where the printing process lives
     GPU memory used/free/total (MiB): 4958 / 11322 / 16280
------------------
     c_bands:  2 eigenvalues not converged
     c_bands:  2 eigenvalues not converged
     c_bands:  2 eigenvalues not converged
     c_bands:  1 eigenvalues not converged
     c_bands:  1 eigenvalues not converged
     c_bands:  1 eigenvalues not converged
     c_bands:  1 eigenvalues not converged
     c_bands:  2 eigenvalues not converged
     c_bands:  1 eigenvalues not converged
     c_bands:  1 eigenvalues not converged
     c_bands:  2 eigenvalues not converged
     c_bands:  2 eigenvalues not converged
     c_bands:  1 eigenvalues not converged
     c_bands:  1 eigenvalues not converged
     c_bands:  2 eigenvalues not converged
     c_bands:  3 eigenvalues not converged
     c_bands:  2 eigenvalues not converged
     c_bands:  1 eigenvalues not converged
     c_bands:  1 eigenvalues not converged
     c_bands:  1 eigenvalues not converged
     c_bands:  1 eigenvalues not converged
     c_bands:  2 eigenvalues not converged
     c_bands:  2 eigenvalues not converged
     c_bands:  3 eigenvalues not converged
     c_bands:  2 eigenvalues not converged
     c_bands:  1 eigenvalues not converged
     c_bands:  2 eigenvalues not converged
     c_bands:  1 eigenvalues not converged
     c_bands:  1 eigenvalues not converged
     c_bands:  2 eigenvalues not converged
     c_bands:  2 eigenvalues not converged
     c_bands:  1 eigenvalues not converged
     c_bands:  1 eigenvalues not converged
     c_bands:  3 eigenvalues not converged
     c_bands:  1 eigenvalues not converged
     c_bands:  2 eigenvalues not converged
     c_bands:  1 eigenvalues not converged
     c_bands:  2 eigenvalues not converged
     c_bands:  1 eigenvalues not converged
     c_bands:  1 eigenvalues not converged
     c_bands:  2 eigenvalues not converged
     c_bands:  1 eigenvalues not converged
     c_bands:  1 eigenvalues not converged
     c_bands:  3 eigenvalues not converged
     c_bands:  1 eigenvalues not converged
     c_bands:  2 eigenvalues not converged
     c_bands:  1 eigenvalues not converged
     c_bands:  2 eigenvalues not converged
     c_bands:  3 eigenvalues not converged
     c_bands:  1 eigenvalues not converged
     ethr =  4.21E-08,  avg # of iterations = 13.2

     total cpu time spent up to now is      640.5 secs

     total energy              =   -4615.62228890 Ry
     estimated scf accuracy    <       0.00030912 Ry

     total magnetization       =    32.62 Bohr mag/cell
     absolute magnetization    =    36.30 Bohr mag/cell
[tb_dev] Currently allocated     2.38E+01 Mbytes, locked:    0 /  12
[tb_pin] Currently allocated     0.00E+00 Mbytes, locked:    0 /   0

     iteration # 14     ecut=    40.00 Ry     beta= 0.10
     Davidson diagonalization with overlap

---- Real-time Memory Report at c_bands before calling an iterative solver
          8411 MiB given to the printing process from OS
          -731 MiB allocation reported by mallinfo(arena+hblkhd)
         44880 MiB available memory on the node where the printing process lives
     GPU memory used/free/total (MiB): 4958 / 11322 / 16280
------------------
     c_bands:  2 eigenvalues not converged
     c_bands:  2 eigenvalues not converged
     c_bands:  1 eigenvalues not converged
     c_bands:  1 eigenvalues not converged
     c_bands:  1 eigenvalues not converged
     c_bands:  1 eigenvalues not converged
     c_bands:  2 eigenvalues not converged
     c_bands:  1 eigenvalues not converged
     c_bands:  1 eigenvalues not converged
     c_bands:  1 eigenvalues not converged
     c_bands:  1 eigenvalues not converged
     c_bands:  1 eigenvalues not converged
     c_bands:  1 eigenvalues not converged
     c_bands:  2 eigenvalues not converged
     c_bands:  1 eigenvalues not converged
     c_bands:  1 eigenvalues not converged
     c_bands:  1 eigenvalues not converged
     c_bands:  1 eigenvalues not converged
     c_bands:  2 eigenvalues not converged
     c_bands:  1 eigenvalues not converged
     c_bands:  1 eigenvalues not converged
     c_bands:  1 eigenvalues not converged
     c_bands:  1 eigenvalues not converged
     c_bands:  2 eigenvalues not converged
     c_bands:  1 eigenvalues not converged
     c_bands:  1 eigenvalues not converged
     c_bands:  1 eigenvalues not converged
     c_bands:  3 eigenvalues not converged
     c_bands:  1 eigenvalues not converged
     c_bands:  1 eigenvalues not converged
     c_bands:  2 eigenvalues not converged
     c_bands:  2 eigenvalues not converged
     c_bands:  1 eigenvalues not converged
     c_bands:  2 eigenvalues not converged
     c_bands:  1 eigenvalues not converged
     c_bands:  1 eigenvalues not converged
     c_bands:  1 eigenvalues not converged
     c_bands:  1 eigenvalues not converged
     c_bands:  2 eigenvalues not converged
     ethr =  4.21E-08,  avg # of iterations = 12.7

     total cpu time spent up to now is      704.9 secs

     total energy              =   -4615.62207530 Ry
     estimated scf accuracy    <       0.00041618 Ry

     total magnetization       =    32.51 Bohr mag/cell
     absolute magnetization    =    36.35 Bohr mag/cell
[tb_dev] Currently allocated     2.38E+01 Mbytes, locked:    0 /  12
[tb_pin] Currently allocated     0.00E+00 Mbytes, locked:    0 /   0

     iteration # 15     ecut=    40.00 Ry     beta= 0.10
     Davidson diagonalization with overlap

---- Real-time Memory Report at c_bands before calling an iterative solver
          8440 MiB given to the printing process from OS
          -702 MiB allocation reported by mallinfo(arena+hblkhd)
         44853 MiB available memory on the node where the printing process lives
     GPU memory used/free/total (MiB): 4958 / 11322 / 16280
------------------
     c_bands:  1 eigenvalues not converged
     c_bands:  2 eigenvalues not converged
     c_bands:  1 eigenvalues not converged
     c_bands:  2 eigenvalues not converged
     c_bands:  1 eigenvalues not converged
     c_bands:  1 eigenvalues not converged
     c_bands:  3 eigenvalues not converged
     c_bands:  1 eigenvalues not converged
     c_bands:  2 eigenvalues not converged
     c_bands:  2 eigenvalues not converged
     c_bands:  2 eigenvalues not converged
     c_bands:  1 eigenvalues not converged
     c_bands:  1 eigenvalues not converged
     c_bands:  1 eigenvalues not converged
     c_bands:  2 eigenvalues not converged
     c_bands:  1 eigenvalues not converged
     c_bands:  1 eigenvalues not converged
     c_bands:  1 eigenvalues not converged
     c_bands:  1 eigenvalues not converged
     c_bands:  1 eigenvalues not converged
     c_bands:  1 eigenvalues not converged
     c_bands:  1 eigenvalues not converged
     c_bands:  2 eigenvalues not converged
     c_bands:  1 eigenvalues not converged
     c_bands:  1 eigenvalues not converged
     c_bands:  1 eigenvalues not converged
     c_bands:  1 eigenvalues not converged
     c_bands:  1 eigenvalues not converged
     c_bands:  2 eigenvalues not converged
     c_bands:  1 eigenvalues not converged
     c_bands:  1 eigenvalues not converged
     c_bands:  1 eigenvalues not converged
     ethr =  4.21E-08,  avg # of iterations = 11.6

     total cpu time spent up to now is      761.3 secs

     total energy              =   -4615.62229687 Ry
     estimated scf accuracy    <       0.00030486 Ry

     total magnetization       =    32.60 Bohr mag/cell
     absolute magnetization    =    36.33 Bohr mag/cell
[tb_dev] Currently allocated     2.38E+01 Mbytes, locked:    0 /  12
[tb_pin] Currently allocated     0.00E+00 Mbytes, locked:    0 /   0

     iteration # 16     ecut=    40.00 Ry     beta= 0.10
     Davidson diagonalization with overlap

---- Real-time Memory Report at c_bands before calling an iterative solver
          8470 MiB given to the printing process from OS
          -673 MiB allocation reported by mallinfo(arena+hblkhd)
         44820 MiB available memory on the node where the printing process lives
     GPU memory used/free/total (MiB): 4958 / 11322 / 16280
------------------
     c_bands:  4 eigenvalues not converged
     c_bands:  3 eigenvalues not converged
     c_bands:  2 eigenvalues not converged
     c_bands:  3 eigenvalues not converged
     c_bands:  3 eigenvalues not converged
     c_bands:  2 eigenvalues not converged
     c_bands:  2 eigenvalues not converged
     c_bands:  1 eigenvalues not converged
     c_bands:  4 eigenvalues not converged
     c_bands:  1 eigenvalues not converged
     c_bands:  1 eigenvalues not converged
     c_bands:  2 eigenvalues not converged
     c_bands:  3 eigenvalues not converged
     c_bands:  3 eigenvalues not converged
     c_bands:  3 eigenvalues not converged
     c_bands:  4 eigenvalues not converged
     c_bands:  2 eigenvalues not converged
     c_bands:  3 eigenvalues not converged
     c_bands:  1 eigenvalues not converged
     c_bands:  2 eigenvalues not converged
     c_bands:  2 eigenvalues not converged
     c_bands:  4 eigenvalues not converged
     c_bands:  3 eigenvalues not converged
     c_bands:  1 eigenvalues not converged
     c_bands:  1 eigenvalues not converged
     c_bands:  1 eigenvalues not converged
     c_bands:  4 eigenvalues not converged
     c_bands:  1 eigenvalues not converged
     c_bands:  2 eigenvalues not converged
     c_bands:  1 eigenvalues not converged
     c_bands:  1 eigenvalues not converged
     c_bands:  3 eigenvalues not converged
     c_bands:  3 eigenvalues not converged
     c_bands:  2 eigenvalues not converged
     c_bands:  3 eigenvalues not converged
     c_bands:  2 eigenvalues not converged
     c_bands:  3 eigenvalues not converged
     c_bands:  2 eigenvalues not converged
     c_bands:  4 eigenvalues not converged
     c_bands:  3 eigenvalues not converged
     c_bands:  5 eigenvalues not converged
     c_bands:  4 eigenvalues not converged
     c_bands:  3 eigenvalues not converged
     c_bands:  3 eigenvalues not converged
     c_bands:  1 eigenvalues not converged
     c_bands:  2 eigenvalues not converged
     c_bands:  2 eigenvalues not converged
     c_bands:  2 eigenvalues not converged
     c_bands:  4 eigenvalues not converged
     c_bands:  1 eigenvalues not converged
     c_bands:  1 eigenvalues not converged
     c_bands:  3 eigenvalues not converged
     c_bands:  3 eigenvalues not converged
     c_bands:  2 eigenvalues not converged
     c_bands:  2 eigenvalues not converged
     c_bands:  2 eigenvalues not converged
     c_bands:  3 eigenvalues not converged
     c_bands:  3 eigenvalues not converged
     c_bands:  4 eigenvalues not converged
     c_bands:  1 eigenvalues not converged
     c_bands:  1 eigenvalues not converged
     c_bands:  1 eigenvalues not converged
     c_bands:  2 eigenvalues not converged
     c_bands:  4 eigenvalues not converged
     ethr =  4.21E-08,  avg # of iterations = 14.3

     total cpu time spent up to now is      832.3 secs

     total energy              =   -4615.62317693 Ry
     estimated scf accuracy    <       0.00031772 Ry

     total magnetization       =    32.25 Bohr mag/cell
     absolute magnetization    =    36.42 Bohr mag/cell
[tb_dev] Currently allocated     2.38E+01 Mbytes, locked:    0 /  12
[tb_pin] Currently allocated     0.00E+00 Mbytes, locked:    0 /   0

     iteration # 17     ecut=    40.00 Ry     beta= 0.10
     Davidson diagonalization with overlap

---- Real-time Memory Report at c_bands before calling an iterative solver
          8499 MiB given to the printing process from OS
          -644 MiB allocation reported by mallinfo(arena+hblkhd)
         44792 MiB available memory on the node where the printing process lives
     GPU memory used/free/total (MiB): 4958 / 11322 / 16280
------------------
     c_bands:  2 eigenvalues not converged
     c_bands:  1 eigenvalues not converged
     c_bands:  1 eigenvalues not converged
     c_bands:  1 eigenvalues not converged
     c_bands:  2 eigenvalues not converged
     c_bands:  1 eigenvalues not converged
     c_bands:  1 eigenvalues not converged
     c_bands:  1 eigenvalues not converged
     c_bands:  1 eigenvalues not converged
     c_bands:  1 eigenvalues not converged
     c_bands:  1 eigenvalues not converged
     c_bands:  1 eigenvalues not converged
     c_bands:  1 eigenvalues not converged
     c_bands:  1 eigenvalues not converged
     c_bands:  1 eigenvalues not converged
     c_bands:  2 eigenvalues not converged
     c_bands:  1 eigenvalues not converged
     c_bands:  1 eigenvalues not converged
     c_bands:  1 eigenvalues not converged
     c_bands:  2 eigenvalues not converged
     c_bands:  1 eigenvalues not converged
     c_bands:  1 eigenvalues not converged
     c_bands:  1 eigenvalues not converged
     c_bands:  1 eigenvalues not converged
     c_bands:  1 eigenvalues not converged
     c_bands:  1 eigenvalues not converged
     ethr =  4.21E-08,  avg # of iterations =  7.1

     total cpu time spent up to now is      872.6 secs

     total energy              =   -4615.62289547 Ry
     estimated scf accuracy    <       0.00045817 Ry

     total magnetization       =    32.30 Bohr mag/cell
     absolute magnetization    =    36.43 Bohr mag/cell
[tb_dev] Currently allocated     2.38E+01 Mbytes, locked:    0 /  12
[tb_pin] Currently allocated     0.00E+00 Mbytes, locked:    0 /   0

     iteration # 18     ecut=    40.00 Ry     beta= 0.10
     Davidson diagonalization with overlap

---- Real-time Memory Report at c_bands before calling an iterative solver
          8527 MiB given to the printing process from OS
          -615 MiB allocation reported by mallinfo(arena+hblkhd)
         44762 MiB available memory on the node where the printing process lives
     GPU memory used/free/total (MiB): 4958 / 11322 / 16280
------------------
     c_bands:  3 eigenvalues not converged
     c_bands:  1 eigenvalues not converged
     c_bands:  1 eigenvalues not converged
     c_bands:  1 eigenvalues not converged
     c_bands:  1 eigenvalues not converged
     c_bands:  3 eigenvalues not converged
     c_bands:  1 eigenvalues not converged
     c_bands:  2 eigenvalues not converged
     c_bands:  2 eigenvalues not converged
     c_bands:  1 eigenvalues not converged
     c_bands:  2 eigenvalues not converged
     c_bands:  1 eigenvalues not converged
     c_bands:  2 eigenvalues not converged
     c_bands:  1 eigenvalues not converged
     c_bands:  1 eigenvalues not converged
     c_bands:  1 eigenvalues not converged
     c_bands:  1 eigenvalues not converged
     c_bands:  1 eigenvalues not converged
     c_bands:  2 eigenvalues not converged
     c_bands:  1 eigenvalues not converged
     c_bands:  1 eigenvalues not converged
     c_bands:  1 eigenvalues not converged
     c_bands:  1 eigenvalues not converged
     c_bands:  1 eigenvalues not converged
     c_bands:  2 eigenvalues not converged
     c_bands:  1 eigenvalues not converged
     c_bands:  1 eigenvalues not converged
     c_bands:  1 eigenvalues not converged
     c_bands:  1 eigenvalues not converged
     c_bands:  1 eigenvalues not converged
     ethr =  4.21E-08,  avg # of iterations = 10.7

     total cpu time spent up to now is      927.0 secs

     total energy              =   -4615.62037455 Ry
     estimated scf accuracy    <       0.00018983 Ry

     total magnetization       =    32.35 Bohr mag/cell
     absolute magnetization    =    36.39 Bohr mag/cell
[tb_dev] Currently allocated     2.38E+01 Mbytes, locked:    0 /  12
[tb_pin] Currently allocated     0.00E+00 Mbytes, locked:    0 /   0

     iteration # 19     ecut=    40.00 Ry     beta= 0.10
     Davidson diagonalization with overlap

---- Real-time Memory Report at c_bands before calling an iterative solver
          8561 MiB given to the printing process from OS
          -586 MiB allocation reported by mallinfo(arena+hblkhd)
         44735 MiB available memory on the node where the printing process lives
     GPU memory used/free/total (MiB): 4958 / 11322 / 16280
------------------
     c_bands:  4 eigenvalues not converged
     c_bands:  3 eigenvalues not converged
     c_bands:  2 eigenvalues not converged
     c_bands:  4 eigenvalues not converged
     c_bands:  3 eigenvalues not converged
     c_bands:  2 eigenvalues not converged
     c_bands:  2 eigenvalues not converged
     c_bands:  2 eigenvalues not converged
     c_bands:  4 eigenvalues not converged
     c_bands:  4 eigenvalues not converged
     c_bands:  2 eigenvalues not converged
     c_bands:  3 eigenvalues not converged
     c_bands:  3 eigenvalues not converged
     c_bands:  3 eigenvalues not converged
     c_bands:  3 eigenvalues not converged
     c_bands:  5 eigenvalues not converged
     c_bands:  4 eigenvalues not converged
     c_bands:  4 eigenvalues not converged
     c_bands:  4 eigenvalues not converged
     c_bands:  1 eigenvalues not converged
     c_bands:  1 eigenvalues not converged
     c_bands:  4 eigenvalues not converged
     c_bands:  4 eigenvalues not converged
     c_bands:  4 eigenvalues not converged
     c_bands:  4 eigenvalues not converged
     c_bands:  5 eigenvalues not converged
     c_bands:  1 eigenvalues not converged
     c_bands:  3 eigenvalues not converged
     c_bands:  3 eigenvalues not converged
     c_bands:  4 eigenvalues not converged
     c_bands:  3 eigenvalues not converged
     c_bands:  5 eigenvalues not converged
     c_bands:  3 eigenvalues not converged
     c_bands:  3 eigenvalues not converged
     c_bands:  2 eigenvalues not converged
     c_bands:  3 eigenvalues not converged
     c_bands:  5 eigenvalues not converged
     c_bands:  5 eigenvalues not converged
     c_bands:  4 eigenvalues not converged
     c_bands:  3 eigenvalues not converged
     c_bands:  2 eigenvalues not converged
     c_bands:  3 eigenvalues not converged
     c_bands:  5 eigenvalues not converged
     c_bands:  3 eigenvalues not converged
     c_bands:  1 eigenvalues not converged
     c_bands:  4 eigenvalues not converged
     c_bands:  3 eigenvalues not converged
     c_bands:  3 eigenvalues not converged
     c_bands:  1 eigenvalues not converged
     c_bands:  5 eigenvalues not converged
     c_bands:  4 eigenvalues not converged
     c_bands:  4 eigenvalues not converged
     c_bands:  4 eigenvalues not converged
     c_bands:  4 eigenvalues not converged
     c_bands:  1 eigenvalues not converged
     c_bands:  5 eigenvalues not converged
     c_bands:  5 eigenvalues not converged
     c_bands:  3 eigenvalues not converged
     c_bands:  4 eigenvalues not converged
     c_bands:  3 eigenvalues not converged
     c_bands:  3 eigenvalues not converged
     c_bands:  5 eigenvalues not converged
     c_bands:  4 eigenvalues not converged
     c_bands:  4 eigenvalues not converged
     c_bands:  5 eigenvalues not converged
     c_bands:  4 eigenvalues not converged
     c_bands:  3 eigenvalues not converged
     c_bands:  3 eigenvalues not converged
     c_bands:  4 eigenvalues not converged
     ethr =  4.21E-08,  avg # of iterations = 15.4

     total cpu time spent up to now is     1003.7 secs

     total energy              =   -4615.62117864 Ry
     estimated scf accuracy    <       0.00023176 Ry

     total magnetization       =    32.69 Bohr mag/cell
     absolute magnetization    =    36.27 Bohr mag/cell
[tb_dev] Currently allocated     2.38E+01 Mbytes, locked:    0 /  12
[tb_pin] Currently allocated     0.00E+00 Mbytes, locked:    0 /   0

     iteration # 20     ecut=    40.00 Ry     beta= 0.10
     Davidson diagonalization with overlap

---- Real-time Memory Report at c_bands before calling an iterative solver
          8591 MiB given to the printing process from OS
          -557 MiB allocation reported by mallinfo(arena+hblkhd)
         44706 MiB available memory on the node where the printing process lives
     GPU memory used/free/total (MiB): 4958 / 11322 / 16280
------------------
     c_bands:  2 eigenvalues not converged
     c_bands:  3 eigenvalues not converged
     c_bands:  1 eigenvalues not converged
     c_bands:  2 eigenvalues not converged
     c_bands:  3 eigenvalues not converged
     c_bands:  2 eigenvalues not converged
     c_bands:  2 eigenvalues not converged
     c_bands:  1 eigenvalues not converged
     c_bands:  1 eigenvalues not converged
     c_bands:  3 eigenvalues not converged
     c_bands:  2 eigenvalues not converged
     c_bands:  1 eigenvalues not converged
     c_bands:  2 eigenvalues not converged
     c_bands:  1 eigenvalues not converged
     c_bands:  2 eigenvalues not converged
     c_bands:  2 eigenvalues not converged
     c_bands:  3 eigenvalues not converged
     c_bands:  4 eigenvalues not converged
     c_bands:  3 eigenvalues not converged
     c_bands:  1 eigenvalues not converged
     c_bands:  1 eigenvalues not converged
     c_bands:  1 eigenvalues not converged
     c_bands:  2 eigenvalues not converged
     c_bands:  3 eigenvalues not converged
     c_bands:  2 eigenvalues not converged
     c_bands:  2 eigenvalues not converged
     c_bands:  2 eigenvalues not converged
     c_bands:  2 eigenvalues not converged
     c_bands:  3 eigenvalues not converged
     c_bands:  4 eigenvalues not converged
     c_bands:  1 eigenvalues not converged
     c_bands:  1 eigenvalues not converged
     c_bands:  2 eigenvalues not converged
     c_bands:  1 eigenvalues not converged
     c_bands:  2 eigenvalues not converged
     c_bands:  3 eigenvalues not converged
     c_bands:  3 eigenvalues not converged
     c_bands:  2 eigenvalues not converged
     c_bands:  1 eigenvalues not converged
     c_bands:  1 eigenvalues not converged
     c_bands:  3 eigenvalues not converged
     c_bands:  2 eigenvalues not converged
     c_bands:  2 eigenvalues not converged
     c_bands:  2 eigenvalues not converged
     c_bands:  3 eigenvalues not converged
     c_bands:  3 eigenvalues not converged
     c_bands:  3 eigenvalues not converged
     c_bands:  2 eigenvalues not converged
     c_bands:  2 eigenvalues not converged
     c_bands:  2 eigenvalues not converged
     c_bands:  3 eigenvalues not converged
     c_bands:  2 eigenvalues not converged
     c_bands:  1 eigenvalues not converged
     c_bands:  1 eigenvalues not converged
     c_bands:  1 eigenvalues not converged
     c_bands:  3 eigenvalues not converged
     c_bands:  1 eigenvalues not converged
     c_bands:  1 eigenvalues not converged
     c_bands:  2 eigenvalues not converged
     c_bands:  4 eigenvalues not converged
     c_bands:  2 eigenvalues not converged
     c_bands:  3 eigenvalues not converged
     c_bands:  2 eigenvalues not converged
     c_bands:  1 eigenvalues not converged
     c_bands:  3 eigenvalues not converged
     c_bands:  3 eigenvalues not converged
     ethr =  4.21E-08,  avg # of iterations = 13.5

     total cpu time spent up to now is     1070.1 secs

     total energy              =   -4615.62036972 Ry
     estimated scf accuracy    <       0.00014197 Ry

     total magnetization       =    32.80 Bohr mag/cell
     absolute magnetization    =    36.23 Bohr mag/cell
[tb_dev] Currently allocated     2.38E+01 Mbytes, locked:    0 /  12
[tb_pin] Currently allocated     0.00E+00 Mbytes, locked:    0 /   0

     iteration # 21     ecut=    40.00 Ry     beta= 0.10
     Davidson diagonalization with overlap

---- Real-time Memory Report at c_bands before calling an iterative solver
          8621 MiB given to the printing process from OS
          -528 MiB allocation reported by mallinfo(arena+hblkhd)
         44677 MiB available memory on the node where the printing process lives
     GPU memory used/free/total (MiB): 4958 / 11322 / 16280
------------------
     c_bands:  2 eigenvalues not converged
     c_bands:  2 eigenvalues not converged
     c_bands:  2 eigenvalues not converged
     c_bands:  1 eigenvalues not converged
     c_bands:  1 eigenvalues not converged
     c_bands:  2 eigenvalues not converged
     c_bands:  2 eigenvalues not converged
     c_bands:  1 eigenvalues not converged
     c_bands:  2 eigenvalues not converged
     c_bands:  1 eigenvalues not converged
     c_bands:  1 eigenvalues not converged
     c_bands:  1 eigenvalues not converged
     c_bands:  1 eigenvalues not converged
     c_bands:  2 eigenvalues not converged
     c_bands:  2 eigenvalues not converged
     c_bands:  1 eigenvalues not converged
     c_bands:  1 eigenvalues not converged
     c_bands:  1 eigenvalues not converged
     c_bands:  1 eigenvalues not converged
     c_bands:  1 eigenvalues not converged
     c_bands:  2 eigenvalues not converged
     c_bands:  1 eigenvalues not converged
     c_bands:  1 eigenvalues not converged
     c_bands:  1 eigenvalues not converged
     c_bands:  1 eigenvalues not converged
     c_bands:  2 eigenvalues not converged
     c_bands:  2 eigenvalues not converged
     c_bands:  1 eigenvalues not converged
     c_bands:  1 eigenvalues not converged
     c_bands:  1 eigenvalues not converged
     c_bands:  2 eigenvalues not converged
     c_bands:  1 eigenvalues not converged
     c_bands:  1 eigenvalues not converged
     c_bands:  1 eigenvalues not converged
     c_bands:  1 eigenvalues not converged
     c_bands:  2 eigenvalues not converged
     c_bands:  1 eigenvalues not converged
     c_bands:  1 eigenvalues not converged
     c_bands:  1 eigenvalues not converged
     c_bands:  1 eigenvalues not converged
     c_bands:  1 eigenvalues not converged
     c_bands:  1 eigenvalues not converged
     ethr =  4.21E-08,  avg # of iterations = 13.6

     total cpu time spent up to now is     1139.6 secs

     total energy              =   -4615.62025302 Ry
     estimated scf accuracy    <       0.00021725 Ry

     total magnetization       =    32.97 Bohr mag/cell
     absolute magnetization    =    36.19 Bohr mag/cell
[tb_dev] Currently allocated     2.38E+01 Mbytes, locked:    0 /  12
[tb_pin] Currently allocated     0.00E+00 Mbytes, locked:    0 /   0

     iteration # 22     ecut=    40.00 Ry     beta= 0.10
     Davidson diagonalization with overlap

---- Real-time Memory Report at c_bands before calling an iterative solver
          8655 MiB given to the printing process from OS
          -499 MiB allocation reported by mallinfo(arena+hblkhd)
         44646 MiB available memory on the node where the printing process lives
     GPU memory used/free/total (MiB): 4958 / 11322 / 16280
------------------
     c_bands:  2 eigenvalues not converged
     c_bands:  3 eigenvalues not converged
     c_bands:  1 eigenvalues not converged
     c_bands:  1 eigenvalues not converged
     c_bands:  2 eigenvalues not converged
     c_bands:  1 eigenvalues not converged
     c_bands:  1 eigenvalues not converged
     c_bands:  2 eigenvalues not converged
     c_bands:  2 eigenvalues not converged
     c_bands:  3 eigenvalues not converged
     c_bands:  1 eigenvalues not converged
     c_bands:  1 eigenvalues not converged
     c_bands:  3 eigenvalues not converged
     c_bands:  2 eigenvalues not converged
     c_bands:  2 eigenvalues not converged
     c_bands:  3 eigenvalues not converged
     c_bands:  3 eigenvalues not converged
     c_bands:  1 eigenvalues not converged
     c_bands:  1 eigenvalues not converged
     c_bands:  1 eigenvalues not converged
     c_bands:  1 eigenvalues not converged
     c_bands:  2 eigenvalues not converged
     c_bands:  3 eigenvalues not converged
     c_bands:  2 eigenvalues not converged
     c_bands:  2 eigenvalues not converged
     c_bands:  1 eigenvalues not converged
     c_bands:  2 eigenvalues not converged
     c_bands:  2 eigenvalues not converged
     c_bands:  1 eigenvalues not converged
     c_bands:  1 eigenvalues not converged
     c_bands:  2 eigenvalues not converged
     c_bands:  1 eigenvalues not converged
     c_bands:  2 eigenvalues not converged
     c_bands:  3 eigenvalues not converged
     c_bands:  3 eigenvalues not converged
     c_bands:  2 eigenvalues not converged
     c_bands:  1 eigenvalues not converged
     c_bands:  3 eigenvalues not converged
     c_bands:  2 eigenvalues not converged
     c_bands:  2 eigenvalues not converged
     c_bands:  1 eigenvalues not converged
     c_bands:  3 eigenvalues not converged
     c_bands:  3 eigenvalues not converged
     c_bands:  3 eigenvalues not converged
     c_bands:  1 eigenvalues not converged
     c_bands:  2 eigenvalues not converged
     c_bands:  2 eigenvalues not converged
     c_bands:  2 eigenvalues not converged
     c_bands:  3 eigenvalues not converged
     c_bands:  1 eigenvalues not converged
     c_bands:  1 eigenvalues not converged
     c_bands:  1 eigenvalues not converged
     c_bands:  3 eigenvalues not converged
     c_bands:  1 eigenvalues not converged
     c_bands:  1 eigenvalues not converged
     c_bands:  2 eigenvalues not converged
     c_bands:  4 eigenvalues not converged
     c_bands:  3 eigenvalues not converged
     c_bands:  4 eigenvalues not converged
     c_bands:  2 eigenvalues not converged
     c_bands:  1 eigenvalues not converged
     c_bands:  3 eigenvalues not converged
     c_bands:  3 eigenvalues not converged
     ethr =  4.21E-08,  avg # of iterations = 13.5

     total cpu time spent up to now is     1205.4 secs

     total energy              =   -4615.62062117 Ry
     estimated scf accuracy    <       0.00019100 Ry

     total magnetization       =    33.08 Bohr mag/cell
     absolute magnetization    =    36.17 Bohr mag/cell
[tb_dev] Currently allocated     2.38E+01 Mbytes, locked:    0 /  12
[tb_pin] Currently allocated     0.00E+00 Mbytes, locked:    0 /   0

     iteration # 23     ecut=    40.00 Ry     beta= 0.10
     Davidson diagonalization with overlap

---- Real-time Memory Report at c_bands before calling an iterative solver
          8689 MiB given to the printing process from OS
          -471 MiB allocation reported by mallinfo(arena+hblkhd)
         44615 MiB available memory on the node where the printing process lives
     GPU memory used/free/total (MiB): 4958 / 11322 / 16280
------------------
     c_bands:  2 eigenvalues not converged
     c_bands:  3 eigenvalues not converged
     c_bands:  1 eigenvalues not converged
     c_bands:  2 eigenvalues not converged
     c_bands:  2 eigenvalues not converged
     c_bands:  1 eigenvalues not converged
     c_bands:  1 eigenvalues not converged
     c_bands:  3 eigenvalues not converged
     c_bands:  1 eigenvalues not converged
     c_bands:  1 eigenvalues not converged
     c_bands:  2 eigenvalues not converged
     c_bands:  3 eigenvalues not converged
     c_bands:  2 eigenvalues not converged
     c_bands:  3 eigenvalues not converged
     c_bands:  1 eigenvalues not converged
     c_bands:  1 eigenvalues not converged
     c_bands:  2 eigenvalues not converged
     c_bands:  3 eigenvalues not converged
     c_bands:  3 eigenvalues not converged
     c_bands:  1 eigenvalues not converged
     c_bands:  1 eigenvalues not converged
     c_bands:  1 eigenvalues not converged
     c_bands:  2 eigenvalues not converged
     c_bands:  1 eigenvalues not converged
     c_bands:  2 eigenvalues not converged
     c_bands:  3 eigenvalues not converged
     c_bands:  2 eigenvalues not converged
     c_bands:  1 eigenvalues not converged
     c_bands:  2 eigenvalues not converged
     c_bands:  1 eigenvalues not converged
     c_bands:  3 eigenvalues not converged
     c_bands:  2 eigenvalues not converged
     c_bands:  2 eigenvalues not converged
     c_bands:  1 eigenvalues not converged
     c_bands:  3 eigenvalues not converged
     c_bands:  3 eigenvalues not converged
     c_bands:  1 eigenvalues not converged
     c_bands:  1 eigenvalues not converged
     c_bands:  2 eigenvalues not converged
     c_bands:  1 eigenvalues not converged
     c_bands:  2 eigenvalues not converged
     c_bands:  1 eigenvalues not converged
     c_bands:  2 eigenvalues not converged
     c_bands:  1 eigenvalues not converged
     c_bands:  3 eigenvalues not converged
     c_bands:  1 eigenvalues not converged
     c_bands:  1 eigenvalues not converged
     c_bands:  1 eigenvalues not converged
     c_bands:  1 eigenvalues not converged
     c_bands:  1 eigenvalues not converged
     c_bands:  1 eigenvalues not converged
     c_bands:  1 eigenvalues not converged
     c_bands:  3 eigenvalues not converged
     c_bands:  1 eigenvalues not converged
     ethr =  4.21E-08,  avg # of iterations = 13.6

     total cpu time spent up to now is     1273.7 secs

     total energy              =   -4615.62107954 Ry
     estimated scf accuracy    <       0.00022416 Ry

     total magnetization       =    32.94 Bohr mag/cell
     absolute magnetization    =    36.19 Bohr mag/cell
[tb_dev] Currently allocated     2.38E+01 Mbytes, locked:    0 /  12
[tb_pin] Currently allocated     0.00E+00 Mbytes, locked:    0 /   0

     iteration # 24     ecut=    40.00 Ry     beta= 0.10
     Davidson diagonalization with overlap

---- Real-time Memory Report at c_bands before calling an iterative solver
          8724 MiB given to the printing process from OS
          -442 MiB allocation reported by mallinfo(arena+hblkhd)
         44590 MiB available memory on the node where the printing process lives
     GPU memory used/free/total (MiB): 4958 / 11322 / 16280
------------------
     c_bands:  2 eigenvalues not converged
     c_bands:  3 eigenvalues not converged
     c_bands:  1 eigenvalues not converged
     c_bands:  1 eigenvalues not converged
     c_bands:  2 eigenvalues not converged
     c_bands:  2 eigenvalues not converged
     c_bands:  1 eigenvalues not converged
     c_bands:  1 eigenvalues not converged
     c_bands:  1 eigenvalues not converged
     c_bands:  2 eigenvalues not converged
     c_bands:  1 eigenvalues not converged
     c_bands:  1 eigenvalues not converged
     c_bands:  2 eigenvalues not converged
     c_bands:  1 eigenvalues not converged
     c_bands:  2 eigenvalues not converged
     c_bands:  3 eigenvalues not converged
     c_bands:  2 eigenvalues not converged
     c_bands:  3 eigenvalues not converged
     c_bands:  1 eigenvalues not converged
     c_bands:  1 eigenvalues not converged
     c_bands:  2 eigenvalues not converged
     c_bands:  3 eigenvalues not converged
     c_bands:  3 eigenvalues not converged
     c_bands:  1 eigenvalues not converged
     c_bands:  1 eigenvalues not converged
     c_bands:  1 eigenvalues not converged
     c_bands:  2 eigenvalues not converged
     c_bands:  1 eigenvalues not converged
     c_bands:  2 eigenvalues not converged
     c_bands:  1 eigenvalues not converged
     c_bands:  1 eigenvalues not converged
     c_bands:  2 eigenvalues not converged
     c_bands:  3 eigenvalues not converged
     c_bands:  2 eigenvalues not converged
     c_bands:  2 eigenvalues not converged
     c_bands:  1 eigenvalues not converged
     c_bands:  3 eigenvalues not converged
     c_bands:  1 eigenvalues not converged
     c_bands:  2 eigenvalues not converged
     c_bands:  2 eigenvalues not converged
     c_bands:  3 eigenvalues not converged
     c_bands:  3 eigenvalues not converged
     c_bands:  1 eigenvalues not converged
     c_bands:  1 eigenvalues not converged
     c_bands:  1 eigenvalues not converged
     c_bands:  1 eigenvalues not converged
     c_bands:  2 eigenvalues not converged
     c_bands:  2 eigenvalues not converged
     c_bands:  1 eigenvalues not converged
     c_bands:  1 eigenvalues not converged
     c_bands:  1 eigenvalues not converged
     c_bands:  1 eigenvalues not converged
     c_bands:  2 eigenvalues not converged
     c_bands:  1 eigenvalues not converged
     c_bands:  1 eigenvalues not converged
     c_bands:  1 eigenvalues not converged
     c_bands:  3 eigenvalues not converged
     c_bands:  4 eigenvalues not converged
     c_bands:  1 eigenvalues not converged
     c_bands:  1 eigenvalues not converged
     c_bands:  2 eigenvalues not converged
     c_bands:  2 eigenvalues not converged
     ethr =  4.21E-08,  avg # of iterations = 13.7

     total cpu time spent up to now is     1340.7 secs

     total energy              =   -4615.61879280 Ry
     estimated scf accuracy    <       0.00011297 Ry

     total magnetization       =    32.79 Bohr mag/cell
     absolute magnetization    =    36.21 Bohr mag/cell
[tb_dev] Currently allocated     2.38E+01 Mbytes, locked:    0 /  12
[tb_pin] Currently allocated     0.00E+00 Mbytes, locked:    0 /   0

     iteration # 25     ecut=    40.00 Ry     beta= 0.10
     Davidson diagonalization with overlap

---- Real-time Memory Report at c_bands before calling an iterative solver
          8753 MiB given to the printing process from OS
          -413 MiB allocation reported by mallinfo(arena+hblkhd)
         44560 MiB available memory on the node where the printing process lives
     GPU memory used/free/total (MiB): 4958 / 11322 / 16280
------------------
     c_bands:  4 eigenvalues not converged
     c_bands:  4 eigenvalues not converged
     c_bands:  3 eigenvalues not converged
     c_bands:  1 eigenvalues not converged
     c_bands:  5 eigenvalues not converged
     c_bands:  5 eigenvalues not converged
     c_bands:  4 eigenvalues not converged
     c_bands:  3 eigenvalues not converged
     c_bands:  2 eigenvalues not converged
     c_bands:  3 eigenvalues not converged
     c_bands:  4 eigenvalues not converged
     c_bands:  5 eigenvalues not converged
     c_bands:  2 eigenvalues not converged
     c_bands:  4 eigenvalues not converged
     c_bands:  3 eigenvalues not converged
     c_bands:  4 eigenvalues not converged
     c_bands:  4 eigenvalues not converged
     c_bands:  1 eigenvalues not converged
     c_bands:  5 eigenvalues not converged
     c_bands:  4 eigenvalues not converged
     c_bands:  4 eigenvalues not converged
     c_bands:  1 eigenvalues not converged
     c_bands:  2 eigenvalues not converged
     c_bands:  3 eigenvalues not converged
     c_bands:  5 eigenvalues not converged
     c_bands:  4 eigenvalues not converged
     c_bands:  4 eigenvalues not converged
     c_bands:  5 eigenvalues not converged
     c_bands:  3 eigenvalues not converged
     c_bands:  3 eigenvalues not converged
     c_bands:  3 eigenvalues not converged
     c_bands:  5 eigenvalues not converged
     c_bands:  4 eigenvalues not converged
     c_bands:  5 eigenvalues not converged
     c_bands:  3 eigenvalues not converged
     c_bands:  3 eigenvalues not converged
     c_bands:  2 eigenvalues not converged
     c_bands:  3 eigenvalues not converged
     c_bands:  4 eigenvalues not converged
     c_bands:  3 eigenvalues not converged
     c_bands:  5 eigenvalues not converged
     c_bands:  3 eigenvalues not converged
     c_bands:  3 eigenvalues not converged
     c_bands:  3 eigenvalues not converged
     c_bands:  4 eigenvalues not converged
     c_bands:  4 eigenvalues not converged
     c_bands:  5 eigenvalues not converged
     c_bands:  4 eigenvalues not converged
     c_bands:  3 eigenvalues not converged
     c_bands:  3 eigenvalues not converged
     c_bands:  1 eigenvalues not converged
     c_bands:  5 eigenvalues not converged
     c_bands:  4 eigenvalues not converged
     c_bands:  5 eigenvalues not converged
     c_bands:  5 eigenvalues not converged
     c_bands:  1 eigenvalues not converged
     c_bands:  4 eigenvalues not converged
     c_bands:  3 eigenvalues not converged
     c_bands:  4 eigenvalues not converged
     c_bands:  3 eigenvalues not converged
     c_bands:  2 eigenvalues not converged
     c_bands:  3 eigenvalues not converged
     c_bands:  4 eigenvalues not converged
     c_bands:  2 eigenvalues not converged
     c_bands:  1 eigenvalues not converged
     c_bands:  4 eigenvalues not converged
     c_bands:  3 eigenvalues not converged
     c_bands:  4 eigenvalues not converged
     c_bands:  4 eigenvalues not converged
     c_bands:  5 eigenvalues not converged
     ethr =  4.21E-08,  avg # of iterations = 15.8

     total cpu time spent up to now is     1418.4 secs

     total energy              =   -4615.62054423 Ry
     estimated scf accuracy    <       0.00011153 Ry

     total magnetization       =    33.09 Bohr mag/cell
     absolute magnetization    =    36.15 Bohr mag/cell
[tb_dev] Currently allocated     2.38E+01 Mbytes, locked:    0 /  12
[tb_pin] Currently allocated     0.00E+00 Mbytes, locked:    0 /   0

     iteration # 26     ecut=    40.00 Ry     beta= 0.10
     Davidson diagonalization with overlap

---- Real-time Memory Report at c_bands before calling an iterative solver
          8782 MiB given to the printing process from OS
          -384 MiB allocation reported by mallinfo(arena+hblkhd)
         44517 MiB available memory on the node where the printing process lives
     GPU memory used/free/total (MiB): 4958 / 11322 / 16280
------------------
     c_bands:  1 eigenvalues not converged
[...]
     c_bands:  3 eigenvalues not converged
     c_bands:  2 eigenvalues not converged
     c_bands:  1 eigenvalues not converged
     c_bands:  3 eigenvalues not converged
     c_bands:  2 eigenvalues not converged
     c_bands:  2 eigenvalues not converged
     c_bands:  4 eigenvalues not converged
     c_bands:  4 eigenvalues not converged
     c_bands:  1 eigenvalues not converged
     c_bands:  2 eigenvalues not converged
     c_bands:  1 eigenvalues not converged
     c_bands:  1 eigenvalues not converged
     c_bands:  3 eigenvalues not converged
     c_bands:  4 eigenvalues not converged
     c_bands:  4 eigenvalues not converged
     c_bands:  4 eigenvalues not converged
     c_bands:  3 eigenvalues not converged
     c_bands:  3 eigenvalues not converged
     c_bands:  4 eigenvalues not converged
     c_bands:  1 eigenvalues not converged
     c_bands:  3 eigenvalues not converged
     c_bands:  2 eigenvalues not converged
     c_bands:  1 eigenvalues not converged
     c_bands:  2 eigenvalues not converged
     c_bands:  3 eigenvalues not converged
     c_bands:  3 eigenvalues not converged
     c_bands:  3 eigenvalues not converged
     c_bands:  3 eigenvalues not converged
     c_bands:  3 eigenvalues not converged
     c_bands:  3 eigenvalues not converged
     c_bands:  2 eigenvalues not converged
     c_bands:  4 eigenvalues not converged
     c_bands:  4 eigenvalues not converged
     c_bands:  5 eigenvalues not converged
     c_bands:  3 eigenvalues not converged
     c_bands:  3 eigenvalues not converged
     c_bands:  2 eigenvalues not converged
     c_bands:  1 eigenvalues not converged
     c_bands:  3 eigenvalues not converged
     c_bands:  3 eigenvalues not converged
     c_bands:  4 eigenvalues not converged
     c_bands:  3 eigenvalues not converged
     c_bands:  1 eigenvalues not converged
     c_bands:  2 eigenvalues not converged
     c_bands:  2 eigenvalues not converged
     c_bands:  3 eigenvalues not converged
     c_bands:  3 eigenvalues not converged
     c_bands:  3 eigenvalues not converged
     c_bands:  3 eigenvalues not converged
     c_bands:  5 eigenvalues not converged
     c_bands:  1 eigenvalues not converged
     c_bands:  4 eigenvalues not converged
     c_bands:  1 eigenvalues not converged
     c_bands:  2 eigenvalues not converged
     c_bands:  2 eigenvalues not converged
     c_bands:  1 eigenvalues not converged
     ethr =  3.44E-08,  avg # of iterations = 14.5

     total cpu time spent up to now is     5001.0 secs

     total energy              =   -4615.62145025 Ry
     estimated scf accuracy    <       0.00043214 Ry

     total magnetization       =    32.85 Bohr mag/cell
     absolute magnetization    =    36.26 Bohr mag/cell
[tb_dev] Currently allocated     2.38E+01 Mbytes, locked:    0 /  12
[tb_pin] Currently allocated     0.00E+00 Mbytes, locked:    0 /   0

     iteration # 77     ecut=    40.00 Ry     beta= 0.10
     Davidson diagonalization with overlap

---- Real-time Memory Report at c_bands before calling an iterative solver
         10343 MiB given to the printing process from OS
          1207 MiB allocation reported by mallinfo(arena+hblkhd)
         49534 MiB available memory on the node where the printing process lives
     GPU memory used/free/total (MiB): 4958 / 11322 / 16280
------------------
     c_bands:  2 eigenvalues not converged
     c_bands:  2 eigenvalues not converged
     c_bands:  1 eigenvalues not converged
     c_bands:  1 eigenvalues not converged
     c_bands:  1 eigenvalues not converged
     c_bands:  1 eigenvalues not converged
     c_bands:  2 eigenvalues not converged
     c_bands:  1 eigenvalues not converged
     c_bands:  1 eigenvalues not converged
     c_bands:  2 eigenvalues not converged
     c_bands:  1 eigenvalues not converged
     c_bands:  1 eigenvalues not converged
     c_bands:  2 eigenvalues not converged
     c_bands:  2 eigenvalues not converged
     c_bands:  1 eigenvalues not converged
     c_bands:  1 eigenvalues not converged
     c_bands:  1 eigenvalues not converged
     c_bands:  1 eigenvalues not converged
     c_bands:  1 eigenvalues not converged
     c_bands:  1 eigenvalues not converged
     c_bands:  2 eigenvalues not converged
     c_bands:  1 eigenvalues not converged
     c_bands:  1 eigenvalues not converged
     c_bands:  1 eigenvalues not converged
     c_bands:  1 eigenvalues not converged
     c_bands:  2 eigenvalues not converged
     c_bands:  2 eigenvalues not converged
     c_bands:  1 eigenvalues not converged
     c_bands:  1 eigenvalues not converged
     c_bands:  1 eigenvalues not converged
     c_bands:  2 eigenvalues not converged
     ethr =  3.44E-08,  avg # of iterations = 13.3

     total cpu time spent up to now is     5069.9 secs

     total energy              =   -4615.62225146 Ry
     estimated scf accuracy    <       0.00016700 Ry

     total magnetization       =    32.60 Bohr mag/cell
     absolute magnetization    =    36.27 Bohr mag/cell
[tb_dev] Currently allocated     2.38E+01 Mbytes, locked:    0 /  12
[tb_pin] Currently allocated     0.00E+00 Mbytes, locked:    0 /   0

     iteration # 78     ecut=    40.00 Ry     beta= 0.10
     Davidson diagonalization with overlap

---- Real-time Memory Report at c_bands before calling an iterative solver
         10372 MiB given to the printing process from OS
          1236 MiB allocation reported by mallinfo(arena+hblkhd)
         49506 MiB available memory on the node where the printing process lives
     GPU memory used/free/total (MiB): 4958 / 11322 / 16280
------------------
     c_bands:  2 eigenvalues not converged
     c_bands:  2 eigenvalues not converged
     c_bands:  1 eigenvalues not converged
     c_bands:  1 eigenvalues not converged
     c_bands:  1 eigenvalues not converged
     c_bands:  1 eigenvalues not converged
     c_bands:  1 eigenvalues not converged
     c_bands:  1 eigenvalues not converged
     c_bands:  2 eigenvalues not converged
     c_bands:  1 eigenvalues not converged
     c_bands:  1 eigenvalues not converged
     c_bands:  2 eigenvalues not converged
     c_bands:  2 eigenvalues not converged
     c_bands:  1 eigenvalues not converged
     c_bands:  2 eigenvalues not converged
     c_bands:  1 eigenvalues not converged
     c_bands:  2 eigenvalues not converged
     c_bands:  1 eigenvalues not converged
     c_bands:  1 eigenvalues not converged
     c_bands:  1 eigenvalues not converged
     c_bands:  1 eigenvalues not converged
     c_bands:  1 eigenvalues not converged
     c_bands:  3 eigenvalues not converged
     c_bands:  1 eigenvalues not converged
     c_bands:  1 eigenvalues not converged
     c_bands:  1 eigenvalues not converged
     c_bands:  2 eigenvalues not converged
     c_bands:  1 eigenvalues not converged
     c_bands:  1 eigenvalues not converged
     c_bands:  1 eigenvalues not converged
     c_bands:  2 eigenvalues not converged
     c_bands:  1 eigenvalues not converged
     c_bands:  2 eigenvalues not converged
     c_bands:  2 eigenvalues not converged
     c_bands:  1 eigenvalues not converged
     c_bands:  1 eigenvalues not converged
     c_bands:  2 eigenvalues not converged
     c_bands:  1 eigenvalues not converged
     c_bands:  1 eigenvalues not converged
     c_bands:  1 eigenvalues not converged
     c_bands:  1 eigenvalues not converged
     c_bands:  1 eigenvalues not converged
     c_bands:  1 eigenvalues not converged
     ethr =  3.44E-08,  avg # of iterations = 13.7

     total cpu time spent up to now is     5140.0 secs

     total energy              =   -4615.61678146 Ry
     estimated scf accuracy    <       0.00045211 Ry

     total magnetization       =    32.36 Bohr mag/cell
     absolute magnetization    =    36.31 Bohr mag/cell
[tb_dev] Currently allocated     2.38E+01 Mbytes, locked:    0 /  12
[tb_pin] Currently allocated     0.00E+00 Mbytes, locked:    0 /   0

     iteration # 79     ecut=    40.00 Ry     beta= 0.10
     Davidson diagonalization with overlap

---- Real-time Memory Report at c_bands before calling an iterative solver
         10402 MiB given to the printing process from OS
          1270 MiB allocation reported by mallinfo(arena+hblkhd)
         49476 MiB available memory on the node where the printing process lives
     GPU memory used/free/total (MiB): 4958 / 11322 / 16280
------------------
     c_bands:  2 eigenvalues not converged
     c_bands:  2 eigenvalues not converged
     c_bands:  3 eigenvalues not converged
     c_bands:  2 eigenvalues not converged
     c_bands:  1 eigenvalues not converged
     c_bands:  1 eigenvalues not converged
     c_bands:  1 eigenvalues not converged
     c_bands:  2 eigenvalues not converged
     c_bands:  2 eigenvalues not converged
     c_bands:  1 eigenvalues not converged
     c_bands:  1 eigenvalues not converged
     c_bands:  1 eigenvalues not converged
     c_bands:  1 eigenvalues not converged
     c_bands:  1 eigenvalues not converged
     c_bands:  2 eigenvalues not converged
     c_bands:  2 eigenvalues not converged
     c_bands:  1 eigenvalues not converged
     c_bands:  4 eigenvalues not converged
     c_bands:  2 eigenvalues not converged
     c_bands:  3 eigenvalues not converged
     c_bands:  1 eigenvalues not converged
     c_bands:  1 eigenvalues not converged
     c_bands:  1 eigenvalues not converged
     c_bands:  1 eigenvalues not converged
     c_bands:  1 eigenvalues not converged
     c_bands:  1 eigenvalues not converged
     c_bands:  1 eigenvalues not converged
     c_bands:  1 eigenvalues not converged
     c_bands:  1 eigenvalues not converged
     c_bands:  2 eigenvalues not converged
     c_bands:  4 eigenvalues not converged
     c_bands:  2 eigenvalues not converged
     c_bands:  2 eigenvalues not converged
     c_bands:  1 eigenvalues not converged
     c_bands:  1 eigenvalues not converged
     c_bands:  5 eigenvalues not converged
     c_bands:  2 eigenvalues not converged
     c_bands:  2 eigenvalues not converged
     c_bands:  1 eigenvalues not converged
     c_bands:  1 eigenvalues not converged
     c_bands:  5 eigenvalues not converged
     c_bands:  1 eigenvalues not converged
     c_bands:  5 eigenvalues not converged
     c_bands:  1 eigenvalues not converged
     c_bands:  2 eigenvalues not converged
     c_bands:  3 eigenvalues not converged
     c_bands:  1 eigenvalues not converged
     c_bands:  1 eigenvalues not converged
     c_bands:  1 eigenvalues not converged
     c_bands:  5 eigenvalues not converged
     c_bands:  1 eigenvalues not converged
     c_bands:  1 eigenvalues not converged
     c_bands:  2 eigenvalues not converged
     c_bands:  2 eigenvalues not converged
     c_bands:  2 eigenvalues not converged
     c_bands:  1 eigenvalues not converged
     c_bands:  5 eigenvalues not converged
     c_bands:  5 eigenvalues not converged
     c_bands:  1 eigenvalues not converged
     ethr =  3.44E-08,  avg # of iterations = 24.5

     total cpu time spent up to now is     5246.9 secs

     total energy              =   -4615.61894086 Ry
     estimated scf accuracy    <       0.00063268 Ry

     total magnetization       =    32.97 Bohr mag/cell
     absolute magnetization    =    36.20 Bohr mag/cell
[tb_dev] Currently allocated     2.38E+01 Mbytes, locked:    0 /  12
[tb_pin] Currently allocated     0.00E+00 Mbytes, locked:    0 /   0

     iteration # 80     ecut=    40.00 Ry     beta= 0.10
     Davidson diagonalization with overlap

---- Real-time Memory Report at c_bands before calling an iterative solver
         10437 MiB given to the printing process from OS
          1299 MiB allocation reported by mallinfo(arena+hblkhd)
         49447 MiB available memory on the node where the printing process lives
     GPU memory used/free/total (MiB): 4958 / 11322 / 16280
------------------
     c_bands:  3 eigenvalues not converged
     c_bands:  3 eigenvalues not converged
     c_bands:  3 eigenvalues not converged
     c_bands:  1 eigenvalues not converged
     c_bands:  5 eigenvalues not converged
     c_bands:  4 eigenvalues not converged
     c_bands:  2 eigenvalues not converged
     c_bands:  2 eigenvalues not converged
     c_bands:  2 eigenvalues not converged
     c_bands:  3 eigenvalues not converged
     c_bands:  5 eigenvalues not converged
     c_bands:  3 eigenvalues not converged
     c_bands:  4 eigenvalues not converged
     c_bands:  3 eigenvalues not converged
     c_bands:  4 eigenvalues not converged
     c_bands:  2 eigenvalues not converged
     c_bands:  4 eigenvalues not converged
     c_bands:  1 eigenvalues not converged
     c_bands:  4 eigenvalues not converged
     c_bands:  3 eigenvalues not converged
     c_bands:  1 eigenvalues not converged
     c_bands:  2 eigenvalues not converged
     c_bands:  3 eigenvalues not converged
     c_bands:  5 eigenvalues not converged
     c_bands:  4 eigenvalues not converged
     c_bands:  5 eigenvalues not converged
     c_bands:  1 eigenvalues not converged
     c_bands:  3 eigenvalues not converged
     c_bands:  3 eigenvalues not converged
     c_bands:  1 eigenvalues not converged
     c_bands:  4 eigenvalues not converged
     c_bands:  4 eigenvalues not converged
     c_bands:  3 eigenvalues not converged
     c_bands:  1 eigenvalues not converged
     c_bands:  2 eigenvalues not converged
     c_bands:  3 eigenvalues not converged
     c_bands:  3 eigenvalues not converged
     c_bands:  3 eigenvalues not converged
     c_bands:  4 eigenvalues not converged
     c_bands:  3 eigenvalues not converged
     c_bands:  3 eigenvalues not converged
     c_bands:  2 eigenvalues not converged
     c_bands:  5 eigenvalues not converged
     c_bands:  5 eigenvalues not converged
     c_bands:  4 eigenvalues not converged
     c_bands:  3 eigenvalues not converged
     c_bands:  4 eigenvalues not converged
     c_bands:  2 eigenvalues not converged
     c_bands:  4 eigenvalues not converged
     c_bands:  2 eigenvalues not converged
     c_bands:  5 eigenvalues not converged
     c_bands:  5 eigenvalues not converged
     c_bands:  1 eigenvalues not converged
     c_bands:  1 eigenvalues not converged
     c_bands:  5 eigenvalues not converged
     c_bands:  3 eigenvalues not converged
     c_bands:  3 eigenvalues not converged
     c_bands:  4 eigenvalues not converged
     c_bands:  3 eigenvalues not converged
     c_bands:  2 eigenvalues not converged
     c_bands:  2 eigenvalues not converged
     c_bands:  4 eigenvalues not converged
     c_bands:  2 eigenvalues not converged
     c_bands:  1 eigenvalues not converged
     c_bands:  4 eigenvalues not converged
     c_bands:  3 eigenvalues not converged
     c_bands:  4 eigenvalues not converged
     ethr =  3.44E-08,  avg # of iterations = 16.3

     negative rho (up, down):  0.000E+00 7.350E-05

     total cpu time spent up to now is     5324.8 secs

     total energy              =   -4615.60958293 Ry
     estimated scf accuracy    <       0.00185134 Ry

     total magnetization       =    33.22 Bohr mag/cell
     absolute magnetization    =    36.17 Bohr mag/cell

     End of self-consistent calculation

     convergence NOT achieved after  80 iterations: stopping

     Writing config to output data dir ./out/aiida.save/
 
     init_run     :     78.17s CPU     13.71s WALL (       1 calls)
     electrons    :   9252.61s CPU   5310.88s WALL (       1 calls)

     Called by init_run:
     wfcinit      :      2.13s CPU      2.14s WALL (       1 calls)
                                        2.14s GPU  (       1 calls)
     potinit      :     58.74s CPU      5.58s WALL (       1 calls)
     hinit0       :     10.51s CPU      4.79s WALL (       1 calls)

     Called by electrons:
     c_bands      :   4301.37s CPU   4478.87s WALL (      81 calls)
     sum_band     :    404.76s CPU    418.05s WALL (      81 calls)
     v_of_rho     :     85.45s CPU      7.80s WALL (      81 calls)
     v_h          :     17.59s CPU      1.59s WALL (      81 calls)
     v_xc         :     67.86s CPU      6.21s WALL (      81 calls)
     newd         :     83.51s CPU      7.87s WALL (      81 calls)
                                        7.87s GPU  (      81 calls)
     PAW_pot      :   4288.88s CPU    388.13s WALL (      81 calls)
     mix_rho      :    107.85s CPU     11.83s WALL (      81 calls)

     Called by c_bands:
     init_us_2    :     47.07s CPU     62.09s WALL (   23004 calls)
     init_us_2:gp :     46.59s CPU     61.63s WALL (   23004 calls)
     cegterg      :   3919.70s CPU   4097.61s WALL (   11947 calls)

     Called by sum_band:
     sum_band:wei :      1.54s CPU      1.55s WALL (      81 calls)
                                        1.55s GPU  (      81 calls)
     sum_band:loo :    389.36s CPU    402.56s WALL (      81 calls)
                                      402.56s GPU  (      81 calls)
     sum_band:buf :    152.76s CPU    153.88s WALL (   11502 calls)
                                      153.79s GPU  (   11502 calls)
     sum_band:ini :     22.43s CPU     28.03s WALL (   11502 calls)
                                       27.96s GPU  (   11502 calls)
     sum_band:cal :      0.50s CPU     21.80s WALL (   11502 calls)
                                       18.20s GPU  (   11502 calls)
     sum_band:bec :      4.72s CPU      4.93s WALL (   11502 calls)
                                        4.70s GPU  (   11502 calls)
     addusdens    :      6.50s CPU      6.58s WALL (      81 calls)
                                        6.58s GPU  (      81 calls)
     addusd:skk   :      0.07s CPU      0.08s WALL (      81 calls)
                                        0.08s GPU  (      81 calls)

     Called by *egterg:
     cdiaghg      :   1377.76s CPU   1547.11s WALL (  159189 calls)
                                     1546.01s GPU  (  159189 calls)
     cegterg:over :    130.66s CPU    134.48s WALL (  147526 calls)
     cegterg:upda :    155.26s CPU    160.70s WALL (  147526 calls)
     cegterg:last :    148.29s CPU    149.50s WALL (   43666 calls)
     h_psi        :   1856.33s CPU   1857.24s WALL (  159473 calls)
                                     1854.35s GPU  (  159473 calls)
     s_psi        :     34.02s CPU    146.81s WALL (  159473 calls)
                                      137.99s GPU  (  159473 calls)
     g_psi        :      1.03s CPU     12.38s WALL (  147526 calls)
                                       11.42s GPU  (  147526 calls)

     Called by h_psi:
     h_psi:calbec :      5.46s CPU    115.46s WALL (  159473 calls)
                                      114.46s GPU  (  159473 calls)
     vloc_psi     :   1567.09s CPU   1566.21s WALL (  159473 calls)
                                     1565.20s GPU  (  159473 calls)
     add_vuspsi   :     53.03s CPU    155.93s WALL (  159473 calls)
                                      154.90s GPU  (  159473 calls)

     General routines
     calbec       :      4.45s CPU      4.59s WALL (  170975 calls)
     fft          :      3.53s CPU      0.92s WALL (    2025 calls)
                                        0.71s GPU  (    1863 calls)
     ffts         :      0.31s CPU      0.10s WALL (     324 calls)
                                        0.03s GPU  (     162 calls)
     fftw         :     20.31s CPU   1304.56s WALL (  891256 calls)
                                     1294.98s GPU  (  891256 calls)
     interpolate  :     15.04s CPU      1.35s WALL (     162 calls)
     davcio       :      0.18s CPU      8.00s WALL (     302 calls)
 
     Parallel routines

     PAW routines
     PAW_pot      :   4288.88s CPU    388.13s WALL (      81 calls)
     PAW_symme    :      0.48s CPU      0.08s WALL (     161 calls)
 
     PWSCF        :      2h35m CPU      1h28m WALL

 
   This run was terminated on:  22:10:49  23Oct2023            

=------------------------------------------------------------------------------=
   JOB DONE.
=------------------------------------------------------------------------------=
