
     Program PWSCF v.7.2 starts on 28Nov2023 at 22:15:59 
        Git branch: develop
        Last git commit: 9055681be6fc8200e6fffe76ed5fda34c2696339
        Last git commit date: Wed Nov 8 16:29:39 2023 +0000
        Last git commit subject: Merge branch 'calbec_fix' into 'develop'

     This program is part of the open-source Quantum ESPRESSO suite
     for quantum simulation of materials; please cite
         "P. Giannozzi et al., J. Phys.:Condens. Matter 21 395502 (2009);
         "P. Giannozzi et al., J. Phys.:Condens. Matter 29 465901 (2017);
         "P. Giannozzi et al., J. Chem. Phys. 152 154105 (2020);
          URL http://www.quantum-espresso.org", 
     in publications or presentations arising from this work. More details at
     http://www.quantum-espresso.org/quote

     Parallel version (MPI), running on    56 processors

     MPI processes distributed on     1 nodes
     488689 MiB available memory on the printing compute node when the environment starts

     Reading input from aiida.in

     Current dimensions of program PWSCF are:
     Max number of different atomic species (ntypx) = 10
     Max number of k-points (npk) =  40000
     Max angular momentum in pseudopotentials (lmaxx) =  4
     Message from routine setup:
     using ibrav=0 with symmetry is DISCOURAGED, use correct ibrav instead

     K-points division:     npool     =       8
     R & G space division:  proc/nbgrp/npool/nimage =       7
     Subspace diagonalization in iterative solution of the eigenvalue problem:
     a serial algorithm will be used


     Parallelization info
     --------------------
     sticks:   dense  smooth     PW     G-vecs:    dense   smooth      PW
     Min        1096     550    149                63364    22445    3201
     Max        1097     551    150                63367    22446    3204
     Sum        7675    3853   1045               443559   157117   22419

     Using Slab Decomposition



     bravais-lattice index     =            0
     lattice parameter (alat)  =      15.2331  a.u.
     unit-cell volume          =    2499.4886 (a.u.)^3
     number of atoms/cell      =           10
     number of atomic types    =            3
     number of electrons       =        68.00
     number of Kohn-Sham states=           41
     kinetic-energy cutoff     =      60.0000  Ry
     charge density cutoff     =     480.0000  Ry
     scf convergence threshold =      2.0E-09
     mixing beta               =       0.4000
     number of iterations used =            8  plain     mixing
     Exchange-correlation= PBESOL
                           (   1   4  10   8   0   0   0)

     celldm(1)=  15.233115  celldm(2)=   0.000000  celldm(3)=   0.000000
     celldm(4)=   0.000000  celldm(5)=   0.000000  celldm(6)=   0.000000

     crystal axes: (cart. coord. in units of alat)
               a(1) = (   0.000000   0.707107   0.707107 )  
               a(2) = (   0.707107   0.000000   0.707107 )  
               a(3) = (   0.707107   0.707107   0.000000 )  

     reciprocal axes: (cart. coord. in units 2 pi/alat)
               b(1) = ( -0.707107  0.707107  0.707107 )  
               b(2) = (  0.707107 -0.707107  0.707107 )  
               b(3) = (  0.707107  0.707107 -0.707107 )  


     PseudoPot. # 1 for Cl read from file:
     ./pseudo/cl_pbesol_v1.4.uspp.F.UPF
     MD5 check sum: ed6bbcf06f19043c0df9f6394706ff8f
     Pseudo is Ultrasoft + core correction, Zval =  7.0
     Generated by new atomic code, or converted to UPF format
     Using radial grid of  909 points,  6 beta functions with: 
                l(1) =   0
                l(2) =   0
                l(3) =   1
                l(4) =   1
                l(5) =   2
                l(6) =   2
     Q(r) pseudized with  8 coefficients,  rinner =    1.300   1.300   1.300
                                                       1.300   1.300

     PseudoPot. # 2 for Co read from file:
     ./pseudo/co_pbesol_v1.2.uspp.F.UPF
     MD5 check sum: 3b4cd4e7cc7df4da9fdede0fd33e2193
     Pseudo is Ultrasoft + core correction, Zval = 17.0
     Generated by new atomic code, or converted to UPF format
     Using radial grid of  863 points,  6 beta functions with: 
                l(1) =   0
                l(2) =   0
                l(3) =   1
                l(4) =   1
                l(5) =   2
                l(6) =   2
     Q(r) pseudized with  8 coefficients,  rinner =    1.200   1.200   1.200
                                                       1.200   1.200

     PseudoPot. # 3 for N  read from file:
     ./pseudo/N.pbesol-theos.UPF
     MD5 check sum: 1b64827339d390a5a22afef3ff345c9d
     Pseudo is Ultrasoft + core correction, Zval =  5.0
     Generated using "atomic" code by A. Dal Corso  v.5.1
     Using radial grid of 1085 points,  4 beta functions with: 
                l(1) =   0
                l(2) =   0
                l(3) =   1
                l(4) =   1
     Q(r) pseudized with 0 coefficients 


     atomic species   valence    mass     pseudopotential
     Cl                7.00    35.45300     Cl( 1.00)
     Co               17.00    58.93319     Co( 1.00)
     N                 5.00    14.00670     N ( 1.00)

     Starting magnetic structure 
     atomic species   magnetization
     Cl              0.100
     Co              0.294
     N               0.100

     48 Sym. Ops., with inversion, found


                                    s                        frac. trans.

      isym =  1     identity                                     

 cryst.   s( 1) = (     1          0          0      )
                  (     0          1          0      )
                  (     0          0          1      )

 cart.    s( 1) = (  1.0000000 -0.0000000  0.0000000 )
                  ( -0.0000000  1.0000000  0.0000000 )
                  ( -0.0000000  0.0000000  1.0000000 )


      isym =  2     180 deg rotation - cart. axis [0,0,1]        

 cryst.   s( 2) = (     0          1         -1      )
                  (     1          0         -1      )
                  (     0          0         -1      )

 cart.    s( 2) = ( -1.0000000  0.0000000  0.0000000 )
                  (  0.0000000 -1.0000000  0.0000000 )
                  (  0.0000000 -0.0000000  1.0000000 )


      isym =  3     180 deg rotation - cart. axis [0,1,0]        

 cryst.   s( 3) = (     0         -1          1      )
                  (     0         -1          0      )
                  (     1         -1          0      )

 cart.    s( 3) = ( -1.0000000 -0.0000000 -0.0000000 )
                  (  0.0000000  1.0000000 -0.0000000 )
                  (  0.0000000  0.0000000 -1.0000000 )


      isym =  4     180 deg rotation - cart. axis [1,0,0]        

 cryst.   s( 4) = (    -1          0          0      )
                  (    -1          0          1      )
                  (    -1          1          0      )

 cart.    s( 4) = (  1.0000000  0.0000000 -0.0000000 )
                  ( -0.0000000 -1.0000000 -0.0000000 )
                  ( -0.0000000 -0.0000000 -1.0000000 )


      isym =  5     180 deg rotation - cart. axis [1,1,0]        

 cryst.   s( 5) = (    -1          0          1      )
                  (     0         -1          1      )
                  (     0          0          1      )

 cart.    s( 5) = ( -0.0000000  1.0000000 -0.0000000 )
                  (  1.0000000 -0.0000000 -0.0000000 )
                  (  0.0000000 -0.0000000 -1.0000000 )


      isym =  6     180 deg rotation - cart. axis [1,-1,0]       

 cryst.   s( 6) = (     0         -1          0      )
                  (    -1          0          0      )
                  (     0          0         -1      )

 cart.    s( 6) = (  0.0000000 -1.0000000 -0.0000000 )
                  ( -1.0000000  0.0000000 -0.0000000 )
                  ( -0.0000000  0.0000000 -1.0000000 )


      isym =  7      90 deg rotation - cart. axis [0,0,-1]       

 cryst.   s( 7) = (     0          1          0      )
                  (     0          1         -1      )
                  (    -1          1          0      )

 cart.    s( 7) = (  0.0000000  1.0000000  0.0000000 )
                  ( -1.0000000 -0.0000000  0.0000000 )
                  ( -0.0000000 -0.0000000  1.0000000 )


      isym =  8      90 deg rotation - cart. axis [0,0,1]        

 cryst.   s( 8) = (     1          0         -1      )
                  (     1          0          0      )
                  (     1         -1          0      )

 cart.    s( 8) = ( -0.0000000 -1.0000000  0.0000000 )
                  (  1.0000000  0.0000000  0.0000000 )
                  (  0.0000000  0.0000000  1.0000000 )


      isym =  9     180 deg rotation - cart. axis [1,0,1]        

 cryst.   s( 9) = (    -1          1          0      )
                  (     0          1          0      )
                  (     0          1         -1      )

 cart.    s( 9) = (  0.0000000  0.0000000  1.0000000 )
                  (  0.0000000 -1.0000000 -0.0000000 )
                  (  1.0000000 -0.0000000 -0.0000000 )


      isym = 10     180 deg rotation - cart. axis [-1,0,1]       

 cryst.   s(10) = (     0          0         -1      )
                  (     0         -1          0      )
                  (    -1          0          0      )

 cart.    s(10) = ( -0.0000000  0.0000000 -1.0000000 )
                  ( -0.0000000 -1.0000000  0.0000000 )
                  ( -1.0000000 -0.0000000  0.0000000 )


      isym = 11      90 deg rotation - cart. axis [0,1,0]        

 cryst.   s(11) = (     0          0          1      )
                  (    -1          0          1      )
                  (     0         -1          1      )

 cart.    s(11) = ( -0.0000000 -0.0000000  1.0000000 )
                  ( -0.0000000  1.0000000 -0.0000000 )
                  ( -1.0000000  0.0000000 -0.0000000 )


      isym = 12      90 deg rotation - cart. axis [0,-1,0]       

 cryst.   s(12) = (     1         -1          0      )
                  (     1          0         -1      )
                  (     1          0          0      )

 cart.    s(12) = (  0.0000000 -0.0000000 -1.0000000 )
                  (  0.0000000  1.0000000  0.0000000 )
                  (  1.0000000  0.0000000  0.0000000 )


      isym = 13     180 deg rotation - cart. axis [0,1,1]        

 cryst.   s(13) = (     1          0          0      )
                  (     1         -1          0      )
                  (     1          0         -1      )

 cart.    s(13) = ( -1.0000000  0.0000000 -0.0000000 )
                  (  0.0000000  0.0000000  1.0000000 )
                  (  0.0000000  1.0000000  0.0000000 )


      isym = 14     180 deg rotation - cart. axis [0,1,-1]       

 cryst.   s(14) = (    -1          0          0      )
                  (     0          0         -1      )
                  (     0         -1          0      )

 cart.    s(14) = ( -1.0000000 -0.0000000  0.0000000 )
                  (  0.0000000 -0.0000000 -1.0000000 )
                  (  0.0000000 -1.0000000 -0.0000000 )


      isym = 15      90 deg rotation - cart. axis [-1,0,0]       

 cryst.   s(15) = (     0         -1          1      )
                  (     0          0          1      )
                  (    -1          0          1      )

 cart.    s(15) = (  1.0000000 -0.0000000 -0.0000000 )
                  ( -0.0000000 -0.0000000  1.0000000 )
                  ( -0.0000000 -1.0000000  0.0000000 )


      isym = 16      90 deg rotation - cart. axis [1,0,0]        

 cryst.   s(16) = (     0          1         -1      )
                  (    -1          1          0      )
                  (     0          1          0      )

 cart.    s(16) = (  1.0000000  0.0000000  0.0000000 )
                  ( -0.0000000  0.0000000 -1.0000000 )
                  ( -0.0000000  1.0000000 -0.0000000 )


      isym = 17     120 deg rotation - cart. axis [-1,-1,-1]     

 cryst.   s(17) = (     0          0          1      )
                  (     1          0          0      )
                  (     0          1          0      )

 cart.    s(17) = (  0.0000000  1.0000000 -0.0000000 )
                  (  0.0000000 -0.0000000  1.0000000 )
                  (  1.0000000 -0.0000000  0.0000000 )


      isym = 18     120 deg rotation - cart. axis [-1,1,1]       

 cryst.   s(18) = (     1         -1          0      )
                  (     0         -1          1      )
                  (     0         -1          0      )

 cart.    s(18) = ( -0.0000000 -1.0000000 -0.0000000 )
                  ( -0.0000000  0.0000000  1.0000000 )
                  ( -1.0000000  0.0000000  0.0000000 )


      isym = 19     120 deg rotation - cart. axis [1,1,-1]       

 cryst.   s(19) = (    -1          1          0      )
                  (    -1          0          0      )
                  (    -1          0          1      )

 cart.    s(19) = ( -0.0000000  1.0000000  0.0000000 )
                  ( -0.0000000 -0.0000000 -1.0000000 )
                  ( -1.0000000 -0.0000000 -0.0000000 )


      isym = 20     120 deg rotation - cart. axis [1,-1,1]       

 cryst.   s(20) = (     0          0         -1      )
                  (     0          1         -1      )
                  (     1          0         -1      )

 cart.    s(20) = (  0.0000000 -1.0000000  0.0000000 )
                  (  0.0000000  0.0000000 -1.0000000 )
                  (  1.0000000  0.0000000 -0.0000000 )


      isym = 21     120 deg rotation - cart. axis [1,1,1]        

 cryst.   s(21) = (     0          1          0      )
                  (     0          0          1      )
                  (     1          0          0      )

 cart.    s(21) = ( -0.0000000  0.0000000  1.0000000 )
                  (  1.0000000  0.0000000 -0.0000000 )
                  (  0.0000000  1.0000000 -0.0000000 )


      isym = 22     120 deg rotation - cart. axis [-1,1,-1]      

 cryst.   s(22) = (    -1          0          1      )
                  (    -1          1          0      )
                  (    -1          0          0      )

 cart.    s(22) = (  0.0000000 -0.0000000  1.0000000 )
                  ( -1.0000000 -0.0000000 -0.0000000 )
                  ( -0.0000000 -1.0000000 -0.0000000 )


      isym = 23     120 deg rotation - cart. axis [1,-1,-1]      

 cryst.   s(23) = (     1          0         -1      )
                  (     0          0         -1      )
                  (     0          1         -1      )

 cart.    s(23) = (  0.0000000  0.0000000 -1.0000000 )
                  ( -1.0000000  0.0000000  0.0000000 )
                  ( -0.0000000  1.0000000  0.0000000 )


      isym = 24     120 deg rotation - cart. axis [-1,-1,1]      

 cryst.   s(24) = (     0         -1          0      )
                  (     1         -1          0      )
                  (     0         -1          1      )

 cart.    s(24) = ( -0.0000000 -0.0000000 -1.0000000 )
                  (  1.0000000 -0.0000000  0.0000000 )
                  (  0.0000000 -1.0000000  0.0000000 )


      isym = 25     inversion                                    

 cryst.   s(25) = (    -1          0          0      )
                  (     0         -1          0      )
                  (     0          0         -1      )

 cart.    s(25) = ( -1.0000000  0.0000000 -0.0000000 )
                  (  0.0000000 -1.0000000 -0.0000000 )
                  (  0.0000000 -0.0000000 -1.0000000 )


      isym = 26     inv. 180 deg rotation - cart. axis [0,0,1]   

 cryst.   s(26) = (     0         -1          1      )
                  (    -1          0          1      )
                  (     0          0          1      )

 cart.    s(26) = (  1.0000000 -0.0000000 -0.0000000 )
                  ( -0.0000000  1.0000000 -0.0000000 )
                  ( -0.0000000  0.0000000 -1.0000000 )


      isym = 27     inv. 180 deg rotation - cart. axis [0,1,0]   

 cryst.   s(27) = (     0          1         -1      )
                  (     0          1          0      )
                  (    -1          1          0      )

 cart.    s(27) = (  1.0000000  0.0000000  0.0000000 )
                  ( -0.0000000 -1.0000000  0.0000000 )
                  ( -0.0000000 -0.0000000  1.0000000 )


      isym = 28     inv. 180 deg rotation - cart. axis [1,0,0]   

 cryst.   s(28) = (     1          0          0      )
                  (     1          0         -1      )
                  (     1         -1          0      )

 cart.    s(28) = ( -1.0000000 -0.0000000  0.0000000 )
                  (  0.0000000  1.0000000  0.0000000 )
                  (  0.0000000  0.0000000  1.0000000 )


      isym = 29     inv. 180 deg rotation - cart. axis [1,1,0]   

 cryst.   s(29) = (     1          0         -1      )
                  (     0          1         -1      )
                  (     0          0         -1      )

 cart.    s(29) = (  0.0000000 -1.0000000  0.0000000 )
                  ( -1.0000000  0.0000000  0.0000000 )
                  ( -0.0000000  0.0000000  1.0000000 )


      isym = 30     inv. 180 deg rotation - cart. axis [1,-1,0]  

 cryst.   s(30) = (     0          1          0      )
                  (     1          0          0      )
                  (     0          0          1      )

 cart.    s(30) = ( -0.0000000  1.0000000  0.0000000 )
                  (  1.0000000 -0.0000000  0.0000000 )
                  (  0.0000000 -0.0000000  1.0000000 )


      isym = 31     inv.  90 deg rotation - cart. axis [0,0,-1]  

 cryst.   s(31) = (     0         -1          0      )
                  (     0         -1          1      )
                  (     1         -1          0      )

 cart.    s(31) = ( -0.0000000 -1.0000000 -0.0000000 )
                  (  1.0000000  0.0000000 -0.0000000 )
                  (  0.0000000  0.0000000 -1.0000000 )


      isym = 32     inv.  90 deg rotation - cart. axis [0,0,1]   

 cryst.   s(32) = (    -1          0          1      )
                  (    -1          0          0      )
                  (    -1          1          0      )

 cart.    s(32) = (  0.0000000  1.0000000 -0.0000000 )
                  ( -1.0000000 -0.0000000 -0.0000000 )
                  ( -0.0000000 -0.0000000 -1.0000000 )


      isym = 33     inv. 180 deg rotation - cart. axis [1,0,1]   

 cryst.   s(33) = (     1         -1          0      )
                  (     0         -1          0      )
                  (     0         -1          1      )

 cart.    s(33) = ( -0.0000000 -0.0000000 -1.0000000 )
                  ( -0.0000000  1.0000000  0.0000000 )
                  ( -1.0000000  0.0000000  0.0000000 )


      isym = 34     inv. 180 deg rotation - cart. axis [-1,0,1]  

 cryst.   s(34) = (     0          0          1      )
                  (     0          1          0      )
                  (     1          0          0      )

 cart.    s(34) = (  0.0000000 -0.0000000  1.0000000 )
                  (  0.0000000  1.0000000 -0.0000000 )
                  (  1.0000000  0.0000000 -0.0000000 )


      isym = 35     inv.  90 deg rotation - cart. axis [0,1,0]   

 cryst.   s(35) = (     0          0         -1      )
                  (     1          0         -1      )
                  (     0          1         -1      )

 cart.    s(35) = (  0.0000000  0.0000000 -1.0000000 )
                  (  0.0000000 -1.0000000  0.0000000 )
                  (  1.0000000 -0.0000000  0.0000000 )


      isym = 36     inv.  90 deg rotation - cart. axis [0,-1,0]  

 cryst.   s(36) = (    -1          1          0      )
                  (    -1          0          1      )
                  (    -1          0          0      )

 cart.    s(36) = ( -0.0000000  0.0000000  1.0000000 )
                  ( -0.0000000 -1.0000000 -0.0000000 )
                  ( -1.0000000 -0.0000000 -0.0000000 )


      isym = 37     inv. 180 deg rotation - cart. axis [0,1,1]   

 cryst.   s(37) = (    -1          0          0      )
                  (    -1          1          0      )
                  (    -1          0          1      )

 cart.    s(37) = (  1.0000000 -0.0000000  0.0000000 )
                  ( -0.0000000 -0.0000000 -1.0000000 )
                  ( -0.0000000 -1.0000000 -0.0000000 )


      isym = 38     inv. 180 deg rotation - cart. axis [0,1,-1]  

 cryst.   s(38) = (     1          0          0      )
                  (     0          0          1      )
                  (     0          1          0      )

 cart.    s(38) = (  1.0000000  0.0000000 -0.0000000 )
                  ( -0.0000000  0.0000000  1.0000000 )
                  ( -0.0000000  1.0000000  0.0000000 )


      isym = 39     inv.  90 deg rotation - cart. axis [-1,0,0]  

 cryst.   s(39) = (     0          1         -1      )
                  (     0          0         -1      )
                  (     1          0         -1      )

 cart.    s(39) = ( -1.0000000  0.0000000  0.0000000 )
                  (  0.0000000  0.0000000 -1.0000000 )
                  (  0.0000000  1.0000000 -0.0000000 )


      isym = 40     inv.  90 deg rotation - cart. axis [1,0,0]   

 cryst.   s(40) = (     0         -1          1      )
                  (     1         -1          0      )
                  (     0         -1          0      )

 cart.    s(40) = ( -1.0000000 -0.0000000 -0.0000000 )
                  (  0.0000000 -0.0000000  1.0000000 )
                  (  0.0000000 -1.0000000  0.0000000 )


      isym = 41     inv. 120 deg rotation - cart. axis [-1,-1,-1]

 cryst.   s(41) = (     0          0         -1      )
                  (    -1          0          0      )
                  (     0         -1          0      )

 cart.    s(41) = ( -0.0000000 -1.0000000  0.0000000 )
                  ( -0.0000000  0.0000000 -1.0000000 )
                  ( -1.0000000  0.0000000 -0.0000000 )


      isym = 42     inv. 120 deg rotation - cart. axis [-1,1,1]  

 cryst.   s(42) = (    -1          1          0      )
                  (     0          1         -1      )
                  (     0          1          0      )

 cart.    s(42) = (  0.0000000  1.0000000  0.0000000 )
                  (  0.0000000 -0.0000000 -1.0000000 )
                  (  1.0000000 -0.0000000 -0.0000000 )


      isym = 43     inv. 120 deg rotation - cart. axis [1,1,-1]  

 cryst.   s(43) = (     1         -1          0      )
                  (     1          0          0      )
                  (     1          0         -1      )

 cart.    s(43) = (  0.0000000 -1.0000000 -0.0000000 )
                  (  0.0000000  0.0000000  1.0000000 )
                  (  1.0000000  0.0000000  0.0000000 )


      isym = 44     inv. 120 deg rotation - cart. axis [1,-1,1]  

 cryst.   s(44) = (     0          0          1      )
                  (     0         -1          1      )
                  (    -1          0          1      )

 cart.    s(44) = ( -0.0000000  1.0000000 -0.0000000 )
                  ( -0.0000000 -0.0000000  1.0000000 )
                  ( -1.0000000 -0.0000000  0.0000000 )


      isym = 45     inv. 120 deg rotation - cart. axis [1,1,1]   

 cryst.   s(45) = (     0         -1          0      )
                  (     0          0         -1      )
                  (    -1          0          0      )

 cart.    s(45) = (  0.0000000 -0.0000000 -1.0000000 )
                  ( -1.0000000 -0.0000000  0.0000000 )
                  ( -0.0000000 -1.0000000  0.0000000 )


      isym = 46     inv. 120 deg rotation - cart. axis [-1,1,-1] 

 cryst.   s(46) = (     1          0         -1      )
                  (     1         -1          0      )
                  (     1          0          0      )

 cart.    s(46) = ( -0.0000000  0.0000000 -1.0000000 )
                  (  1.0000000  0.0000000  0.0000000 )
                  (  0.0000000  1.0000000  0.0000000 )


      isym = 47     inv. 120 deg rotation - cart. axis [1,-1,-1] 

 cryst.   s(47) = (    -1          0          1      )
                  (     0          0          1      )
                  (     0         -1          1      )

 cart.    s(47) = ( -0.0000000 -0.0000000  1.0000000 )
                  (  1.0000000 -0.0000000 -0.0000000 )
                  (  0.0000000 -1.0000000 -0.0000000 )


      isym = 48     inv. 120 deg rotation - cart. axis [-1,-1,1] 

 cryst.   s(48) = (     0          1          0      )
                  (    -1          1          0      )
                  (     0          1         -1      )

 cart.    s(48) = (  0.0000000  0.0000000  1.0000000 )
                  ( -1.0000000  0.0000000 -0.0000000 )
                  ( -0.0000000  1.0000000 -0.0000000 )


   Cartesian axes

     site n.     atom                  positions (alat units)
         1        Co     tau(   1) = (   0.0000000   0.0000000   0.0000000  )
         2        N      tau(   2) = (   0.0000000   0.0000000   1.1455130  )
         3        N      tau(   3) = (   0.7071068   0.9758074   0.0000000  )
         4        N      tau(   4) = (   0.2687006  -0.0000000  -0.0000000  )
         5        N      tau(   5) = (   0.7071068   0.0000000   0.9758074  )
         6        N      tau(   6) = (   0.7071068   0.4384062  -0.0000000  )
         7        N      tau(   7) = (   1.1455130  -0.0000000  -0.0000000  )
         8        Cl     tau(   8) = (   0.7071068   0.0000000   0.0000000  )
         9        Cl     tau(   9) = (   0.3535534   0.3535534   1.0606602  )
        10        Cl     tau(  10) = (   0.3535534   1.0606602   1.0606602  )

   Crystallographic axes

     site n.     atom                  positions (cryst. coord.)
         1        Co     tau(   1) = (  0.0000000  0.0000000  0.0000000  )
         2        N      tau(   2) = (  0.8100000  0.8100000 -0.8100000  )
         3        N      tau(   3) = (  0.1900000 -0.1900000  1.1900000  )
         4        N      tau(   4) = ( -0.1900000  0.1900000  0.1900000  )
         5        N      tau(   5) = (  0.1900000  1.1900000 -0.1900000  )
         6        N      tau(   6) = ( -0.1900000  0.1900000  0.8100000  )
         7        N      tau(   7) = ( -0.8100000  0.8100000  0.8100000  )
         8        Cl     tau(   8) = ( -0.5000000  0.5000000  0.5000000  )
         9        Cl     tau(   9) = (  0.7500000  0.7500000 -0.2500000  )
        10        Cl     tau(  10) = (  1.2500000  0.2500000  0.2500000  )

     number of k points=    20  Marzari-Vanderbilt smearing, width (Ry)=  0.0200
                       cart. coord. in units 2pi/alat
        k(    1) = (   0.0000000   0.0000000   0.0000000), wk =   0.0029155
        k(    2) = (   0.1010153   0.1010153  -0.1010153), wk =   0.0233236
        k(    3) = (   0.2020305   0.2020305  -0.2020305), wk =   0.0233236
        k(    4) = (   0.3030458   0.3030458  -0.3030458), wk =   0.0233236
        k(    5) = (   0.2020305  -0.0000000   0.0000000), wk =   0.0174927
        k(    6) = (   0.3030458   0.1010153  -0.1010153), wk =   0.0699708
        k(    7) = (   0.4040610   0.2020305  -0.2020305), wk =   0.0699708
        k(    8) = (  -0.2020305  -0.4040610   0.4040610), wk =   0.0699708
        k(    9) = (  -0.1010153  -0.3030458   0.3030458), wk =   0.0699708
        k(   10) = (  -0.0000000  -0.2020305   0.2020305), wk =   0.0349854
        k(   11) = (   0.4040610  -0.0000000   0.0000000), wk =   0.0174927
        k(   12) = (   0.5050763   0.1010153  -0.1010153), wk =   0.0699708
        k(   13) = (  -0.1010153  -0.5050763   0.5050763), wk =   0.0699708
        k(   14) = (   0.0000000  -0.4040610   0.4040610), wk =   0.0349854
        k(   15) = (   0.6060915  -0.0000000   0.0000000), wk =   0.0174927
        k(   16) = (  -0.0000000  -0.6060915   0.6060915), wk =   0.0349854
        k(   17) = (   0.4040610   0.2020305   0.0000000), wk =   0.0699708
        k(   18) = (  -0.2020305  -0.4040610   0.6060915), wk =   0.1399417
        k(   19) = (  -0.1010153  -0.5050763   0.7071068), wk =   0.0699708
        k(   20) = (   0.0000000  -0.4040610   0.6060915), wk =   0.0699708

                       cryst. coord.
        k(    1) = (   0.0000000   0.0000000   0.0000000), wk =   0.0029155
        k(    2) = (   0.0000000   0.0000000   0.1428571), wk =   0.0233236
        k(    3) = (   0.0000000   0.0000000   0.2857143), wk =   0.0233236
        k(    4) = (  -0.0000000  -0.0000000   0.4285714), wk =   0.0233236
        k(    5) = (  -0.0000000   0.1428571   0.1428571), wk =   0.0174927
        k(    6) = (  -0.0000000   0.1428571   0.2857143), wk =   0.0699708
        k(    7) = (  -0.0000000   0.1428571   0.4285714), wk =   0.0699708
        k(    8) = (  -0.0000000   0.1428571  -0.4285714), wk =   0.0699708
        k(    9) = (   0.0000000   0.1428571  -0.2857143), wk =   0.0699708
        k(   10) = (  -0.0000000   0.1428571  -0.1428571), wk =   0.0349854
        k(   11) = (  -0.0000000   0.2857143   0.2857143), wk =   0.0174927
        k(   12) = (  -0.0000000   0.2857143   0.4285714), wk =   0.0699708
        k(   13) = (  -0.0000000   0.2857143  -0.4285714), wk =   0.0699708
        k(   14) = (  -0.0000000   0.2857143  -0.2857143), wk =   0.0349854
        k(   15) = (   0.0000000   0.4285714   0.4285714), wk =   0.0174927
        k(   16) = (   0.0000000   0.4285714  -0.4285714), wk =   0.0349854
        k(   17) = (   0.1428571   0.2857143   0.4285714), wk =   0.0699708
        k(   18) = (   0.1428571   0.2857143  -0.4285714), wk =   0.1399417
        k(   19) = (   0.1428571   0.4285714  -0.4285714), wk =   0.0699708
        k(   20) = (   0.1428571   0.4285714  -0.2857143), wk =   0.0699708

     Dense  grid:   443559 G-vectors     FFT dimensions: ( 108, 108, 108)

     Smooth grid:   157117 G-vectors     FFT dimensions: (  75,  75,  75)

     Dynamical RAM for                 wfc:       1.75 MB

     Dynamical RAM for     wfc (w. buffer):      10.52 MB

     Dynamical RAM for           str. fact:       2.90 MB

     Dynamical RAM for           local pot:       0.00 MB

     Dynamical RAM for          nlocal pot:       5.13 MB

     Dynamical RAM for                qrad:       5.27 MB

     Dynamical RAM for          rho,v,vnew:      14.34 MB

     Dynamical RAM for               rhoin:       4.78 MB

     Dynamical RAM for            rho*nmix:      30.94 MB

     Dynamical RAM for           G-vectors:       3.80 MB

     Dynamical RAM for          h,s,v(r/c):       0.31 MB

     Dynamical RAM for          <psi|beta>:       0.08 MB

     Dynamical RAM for                 psi:       3.51 MB

     Dynamical RAM for                hpsi:       3.51 MB

     Dynamical RAM for                spsi:       3.51 MB

     Dynamical RAM for      wfcinit/wfcrot:       4.25 MB

     Dynamical RAM for           addusdens:      25.02 MB

     Dynamical RAM for          addusforce:      25.43 MB

     Dynamical RAM for         addusstress:      25.32 MB

     Estimated static dynamical RAM per process >      59.15 MB

     Estimated max dynamical RAM per process >     115.52 MB

     Estimated total dynamical RAM >       4.84 GB

     Check: negative core charge=   -0.000002
     Generating pointlists ...
     new r_m :   0.1808 (alat units)  2.7548 (a.u.) for type    1
     new r_m :   0.1108 (alat units)  1.6884 (a.u.) for type    2
     new r_m :   0.1108 (alat units)  1.6884 (a.u.) for type    3

     Initial potential from superposition of free atoms

     starting charge      66.9999, renormalised to      68.0000

     negative rho (up, down):  2.580E-02 2.111E-02
     Starting wfcs are   49 randomized atomic wfcs

     total cpu time spent up to now is        2.6 secs

     per-process dynamical memory:   109.1 Mb

     Self-consistent Calculation

     iteration #  1     ecut=    60.00 Ry     beta= 0.40
     Davidson diagonalization with overlap

---- Real-time Memory Report at c_bands before calling an iterative solver
           134 MiB given to the printing process from OS
           106 MiB allocation reported by mallinfo(arena+hblkhd)
        483940 MiB available memory on the node where the printing process lives
------------------
     ethr =  1.00E-02,  avg # of iterations =  1.7

     negative rho (up, down):  2.498E-02 2.065E-02

     total cpu time spent up to now is        4.6 secs

     total energy              =    -513.01556546 Ry
     estimated scf accuracy    <       5.63375320 Ry

     total magnetization       =    13.86 Bohr mag/cell
     absolute magnetization    =    13.87 Bohr mag/cell

     iteration #  2     ecut=    60.00 Ry     beta= 0.40
     Davidson diagonalization with overlap

---- Real-time Memory Report at c_bands before calling an iterative solver
           150 MiB given to the printing process from OS
           119 MiB allocation reported by mallinfo(arena+hblkhd)
        482311 MiB available memory on the node where the printing process lives
------------------
     ethr =  8.28E-03,  avg # of iterations =  5.5

     negative rho (up, down):  2.503E-02 2.125E-02

     total cpu time spent up to now is        7.4 secs

     total energy              =    -515.57491361 Ry
     estimated scf accuracy    <      22.05838604 Ry

     total magnetization       =     4.92 Bohr mag/cell
     absolute magnetization    =     5.15 Bohr mag/cell

     iteration #  3     ecut=    60.00 Ry     beta= 0.40
     Davidson diagonalization with overlap

---- Real-time Memory Report at c_bands before calling an iterative solver
           152 MiB given to the printing process from OS
           121 MiB allocation reported by mallinfo(arena+hblkhd)
        482262 MiB available memory on the node where the printing process lives
------------------
     ethr =  8.28E-03,  avg # of iterations =  3.2

     negative rho (up, down):  2.494E-02 2.147E-02

     total cpu time spent up to now is        9.7 secs

     total energy              =    -515.46840487 Ry
     estimated scf accuracy    <       6.08384688 Ry

     total magnetization       =     8.03 Bohr mag/cell
     absolute magnetization    =     8.26 Bohr mag/cell

     iteration #  4     ecut=    60.00 Ry     beta= 0.40
     Davidson diagonalization with overlap

---- Real-time Memory Report at c_bands before calling an iterative solver
           154 MiB given to the printing process from OS
           122 MiB allocation reported by mallinfo(arena+hblkhd)
        482271 MiB available memory on the node where the printing process lives
------------------
     ethr =  8.28E-03,  avg # of iterations =  1.9

     negative rho (up, down):  2.492E-02 2.162E-02

     total cpu time spent up to now is       11.7 secs

     total energy              =    -515.68211397 Ry
     estimated scf accuracy    <       1.40034315 Ry

     total magnetization       =    10.58 Bohr mag/cell
     absolute magnetization    =    10.81 Bohr mag/cell

     iteration #  5     ecut=    60.00 Ry     beta= 0.40
     Davidson diagonalization with overlap

---- Real-time Memory Report at c_bands before calling an iterative solver
           156 MiB given to the printing process from OS
           124 MiB allocation reported by mallinfo(arena+hblkhd)
        482239 MiB available memory on the node where the printing process lives
------------------
     ethr =  2.06E-03,  avg # of iterations =  4.2

     negative rho (up, down):  2.487E-02 2.140E-02

     total cpu time spent up to now is       14.1 secs

     total energy              =    -516.15894976 Ry
     estimated scf accuracy    <       2.43307074 Ry

     total magnetization       =    15.00 Bohr mag/cell
     absolute magnetization    =    15.09 Bohr mag/cell

     iteration #  6     ecut=    60.00 Ry     beta= 0.40
     Davidson diagonalization with overlap

---- Real-time Memory Report at c_bands before calling an iterative solver
           158 MiB given to the printing process from OS
           125 MiB allocation reported by mallinfo(arena+hblkhd)
        482219 MiB available memory on the node where the printing process lives
------------------
     ethr =  2.06E-03,  avg # of iterations =  4.0

     negative rho (up, down):  2.430E-02 2.155E-02

     total cpu time spent up to now is       16.4 secs

     total energy              =    -515.76401310 Ry
     estimated scf accuracy    <       8.81712160 Ry

     total magnetization       =     5.18 Bohr mag/cell
     absolute magnetization    =     5.87 Bohr mag/cell

     iteration #  7     ecut=    60.00 Ry     beta= 0.40
     Davidson diagonalization with overlap

---- Real-time Memory Report at c_bands before calling an iterative solver
           159 MiB given to the printing process from OS
           126 MiB allocation reported by mallinfo(arena+hblkhd)
        482194 MiB available memory on the node where the printing process lives
------------------
     ethr =  2.06E-03,  avg # of iterations =  6.0

     negative rho (up, down):  2.424E-02 2.185E-02

     total cpu time spent up to now is       18.9 secs

     total energy              =    -515.91789271 Ry
     estimated scf accuracy    <      14.31544920 Ry

     total magnetization       =    10.38 Bohr mag/cell
     absolute magnetization    =    10.48 Bohr mag/cell

     iteration #  8     ecut=    60.00 Ry     beta= 0.40
     Davidson diagonalization with overlap

---- Real-time Memory Report at c_bands before calling an iterative solver
           161 MiB given to the printing process from OS
           128 MiB allocation reported by mallinfo(arena+hblkhd)
        482172 MiB available memory on the node where the printing process lives
------------------
     ethr =  2.06E-03,  avg # of iterations =  3.7

     negative rho (up, down):  2.408E-02 2.220E-02

     total cpu time spent up to now is       21.2 secs

     total energy              =    -515.10288508 Ry
     estimated scf accuracy    <       5.98538060 Ry

     total magnetization       =    11.04 Bohr mag/cell
     absolute magnetization    =    11.40 Bohr mag/cell

     iteration #  9     ecut=    60.00 Ry     beta= 0.40
     Davidson diagonalization with overlap

---- Real-time Memory Report at c_bands before calling an iterative solver
           163 MiB given to the printing process from OS
           129 MiB allocation reported by mallinfo(arena+hblkhd)
        482151 MiB available memory on the node where the printing process lives
------------------
     ethr =  2.06E-03,  avg # of iterations =  6.2

     negative rho (up, down):  2.397E-02 2.232E-02

     total cpu time spent up to now is       23.9 secs

     total energy              =    -516.23475697 Ry
     estimated scf accuracy    <       2.35075444 Ry

     total magnetization       =    14.50 Bohr mag/cell
     absolute magnetization    =    14.69 Bohr mag/cell

     iteration # 10     ecut=    60.00 Ry     beta= 0.40
     Davidson diagonalization with overlap

---- Real-time Memory Report at c_bands before calling an iterative solver
           164 MiB given to the printing process from OS
           130 MiB allocation reported by mallinfo(arena+hblkhd)
        482137 MiB available memory on the node where the printing process lives
------------------
     ethr =  2.06E-03,  avg # of iterations =  1.1

     negative rho (up, down):  2.362E-02 2.239E-02

     total cpu time spent up to now is       25.8 secs

     total energy              =    -515.77689366 Ry
     estimated scf accuracy    <       2.79724748 Ry

     total magnetization       =    15.04 Bohr mag/cell
     absolute magnetization    =    15.23 Bohr mag/cell

     iteration # 11     ecut=    60.00 Ry     beta= 0.40
     Davidson diagonalization with overlap

---- Real-time Memory Report at c_bands before calling an iterative solver
           164 MiB given to the printing process from OS
           130 MiB allocation reported by mallinfo(arena+hblkhd)
        482129 MiB available memory on the node where the printing process lives
------------------
     ethr =  2.06E-03,  avg # of iterations =  2.5

     negative rho (up, down):  2.356E-02 2.246E-02

     total cpu time spent up to now is       28.0 secs

     total energy              =    -516.13019302 Ry
     estimated scf accuracy    <       1.13597413 Ry

     total magnetization       =     9.67 Bohr mag/cell
     absolute magnetization    =     9.83 Bohr mag/cell

     iteration # 12     ecut=    60.00 Ry     beta= 0.40
     Davidson diagonalization with overlap

---- Real-time Memory Report at c_bands before calling an iterative solver
           164 MiB given to the printing process from OS
           130 MiB allocation reported by mallinfo(arena+hblkhd)
        482121 MiB available memory on the node where the printing process lives
------------------
     ethr =  1.67E-03,  avg # of iterations =  1.0

     negative rho (up, down):  2.360E-02 2.249E-02

     total cpu time spent up to now is       29.9 secs

     total energy              =    -516.10705716 Ry
     estimated scf accuracy    <       1.04944386 Ry

     total magnetization       =     9.89 Bohr mag/cell
     absolute magnetization    =    10.13 Bohr mag/cell

     iteration # 13     ecut=    60.00 Ry     beta= 0.40
     Davidson diagonalization with overlap

---- Real-time Memory Report at c_bands before calling an iterative solver
           165 MiB given to the printing process from OS
           130 MiB allocation reported by mallinfo(arena+hblkhd)
        482120 MiB available memory on the node where the printing process lives
------------------
     ethr =  1.54E-03,  avg # of iterations =  1.0

     negative rho (up, down):  2.363E-02 2.250E-02

     total cpu time spent up to now is       31.8 secs

     total energy              =    -516.07701820 Ry
     estimated scf accuracy    <       1.29236683 Ry

     total magnetization       =    10.08 Bohr mag/cell
     absolute magnetization    =    10.55 Bohr mag/cell

     iteration # 14     ecut=    60.00 Ry     beta= 0.40
     Davidson diagonalization with overlap

---- Real-time Memory Report at c_bands before calling an iterative solver
           165 MiB given to the printing process from OS
           130 MiB allocation reported by mallinfo(arena+hblkhd)
        482118 MiB available memory on the node where the printing process lives
------------------
     ethr =  1.54E-03,  avg # of iterations =  1.0

     negative rho (up, down):  2.373E-02 2.250E-02

     total cpu time spent up to now is       33.7 secs

     total energy              =    -516.10017786 Ry
     estimated scf accuracy    <       0.46054192 Ry

     total magnetization       =    11.85 Bohr mag/cell
     absolute magnetization    =    12.08 Bohr mag/cell

     iteration # 15     ecut=    60.00 Ry     beta= 0.40
     Davidson diagonalization with overlap

---- Real-time Memory Report at c_bands before calling an iterative solver
           165 MiB given to the printing process from OS
           130 MiB allocation reported by mallinfo(arena+hblkhd)
        482113 MiB available memory on the node where the printing process lives
------------------
     ethr =  6.77E-04,  avg # of iterations =  1.8

     negative rho (up, down):  2.357E-02 2.253E-02

     total cpu time spent up to now is       35.8 secs

     total energy              =    -516.08707503 Ry
     estimated scf accuracy    <       1.24112445 Ry

     total magnetization       =    15.09 Bohr mag/cell
     absolute magnetization    =    15.42 Bohr mag/cell

     iteration # 16     ecut=    60.00 Ry     beta= 0.40
     Davidson diagonalization with overlap

---- Real-time Memory Report at c_bands before calling an iterative solver
           165 MiB given to the printing process from OS
           130 MiB allocation reported by mallinfo(arena+hblkhd)
        482112 MiB available memory on the node where the printing process lives
------------------
     ethr =  6.77E-04,  avg # of iterations =  2.9

     negative rho (up, down):  2.356E-02 2.255E-02

     total cpu time spent up to now is       38.0 secs

     total energy              =    -516.16145716 Ry
     estimated scf accuracy    <       1.71380215 Ry

     total magnetization       =    13.86 Bohr mag/cell
     absolute magnetization    =    13.99 Bohr mag/cell

     iteration # 17     ecut=    60.00 Ry     beta= 0.40
     Davidson diagonalization with overlap

---- Real-time Memory Report at c_bands before calling an iterative solver
           165 MiB given to the printing process from OS
           130 MiB allocation reported by mallinfo(arena+hblkhd)
        482107 MiB available memory on the node where the printing process lives
------------------
     ethr =  6.77E-04,  avg # of iterations =  1.0

     negative rho (up, down):  2.345E-02 2.264E-02

     total cpu time spent up to now is       39.9 secs

     total energy              =    -516.18216007 Ry
     estimated scf accuracy    <       1.73103048 Ry

     total magnetization       =    13.68 Bohr mag/cell
     absolute magnetization    =    13.91 Bohr mag/cell

     iteration # 18     ecut=    60.00 Ry     beta= 0.40
     Davidson diagonalization with overlap

---- Real-time Memory Report at c_bands before calling an iterative solver
           165 MiB given to the printing process from OS
           130 MiB allocation reported by mallinfo(arena+hblkhd)
        482107 MiB available memory on the node where the printing process lives
------------------
     ethr =  6.77E-04,  avg # of iterations =  1.0

     negative rho (up, down):  2.344E-02 2.259E-02

     total cpu time spent up to now is       41.8 secs

     total energy              =    -516.16058075 Ry
     estimated scf accuracy    <       2.53559067 Ry

     total magnetization       =    12.74 Bohr mag/cell
     absolute magnetization    =    13.01 Bohr mag/cell

     iteration # 19     ecut=    60.00 Ry     beta= 0.40
     Davidson diagonalization with overlap

---- Real-time Memory Report at c_bands before calling an iterative solver
           165 MiB given to the printing process from OS
           130 MiB allocation reported by mallinfo(arena+hblkhd)
        482100 MiB available memory on the node where the printing process lives
------------------
     ethr =  6.77E-04,  avg # of iterations =  1.0

     negative rho (up, down):  2.353E-02 2.253E-02

     total cpu time spent up to now is       43.7 secs

     total energy              =    -516.14393656 Ry
     estimated scf accuracy    <       2.02971856 Ry

     total magnetization       =    13.60 Bohr mag/cell
     absolute magnetization    =    13.81 Bohr mag/cell

     iteration # 20     ecut=    60.00 Ry     beta= 0.40
     Davidson diagonalization with overlap

---- Real-time Memory Report at c_bands before calling an iterative solver
           165 MiB given to the printing process from OS
           130 MiB allocation reported by mallinfo(arena+hblkhd)
        482101 MiB available memory on the node where the printing process lives
------------------
     ethr =  6.77E-04,  avg # of iterations =  1.0

     negative rho (up, down):  2.366E-02 2.230E-02

     total cpu time spent up to now is       45.6 secs

     total energy              =    -516.05854560 Ry
     estimated scf accuracy    <       1.89991935 Ry

     total magnetization       =    13.96 Bohr mag/cell
     absolute magnetization    =    14.14 Bohr mag/cell

     iteration # 21     ecut=    60.00 Ry     beta= 0.40
     Davidson diagonalization with overlap

---- Real-time Memory Report at c_bands before calling an iterative solver
           165 MiB given to the printing process from OS
           130 MiB allocation reported by mallinfo(arena+hblkhd)
        482099 MiB available memory on the node where the printing process lives
------------------
     ethr =  6.77E-04,  avg # of iterations =  1.4

     negative rho (up, down):  2.363E-02 2.234E-02

     total cpu time spent up to now is       47.6 secs

     total energy              =    -516.07610282 Ry
     estimated scf accuracy    <       1.06362901 Ry

     total magnetization       =    12.68 Bohr mag/cell
     absolute magnetization    =    13.74 Bohr mag/cell

     iteration # 22     ecut=    60.00 Ry     beta= 0.40
     Davidson diagonalization with overlap

---- Real-time Memory Report at c_bands before calling an iterative solver
           165 MiB given to the printing process from OS
           130 MiB allocation reported by mallinfo(arena+hblkhd)
        482098 MiB available memory on the node where the printing process lives
------------------
     ethr =  6.77E-04,  avg # of iterations =  1.0

     negative rho (up, down):  2.361E-02 2.216E-02

     total cpu time spent up to now is       49.6 secs

     total energy              =    -516.09326345 Ry
     estimated scf accuracy    <       0.52888753 Ry

     total magnetization       =    14.71 Bohr mag/cell
     absolute magnetization    =    14.74 Bohr mag/cell

     iteration # 23     ecut=    60.00 Ry     beta= 0.40
     Davidson diagonalization with overlap

---- Real-time Memory Report at c_bands before calling an iterative solver
           165 MiB given to the printing process from OS
           130 MiB allocation reported by mallinfo(arena+hblkhd)
        482092 MiB available memory on the node where the printing process lives
------------------
     ethr =  6.77E-04,  avg # of iterations =  1.0

     negative rho (up, down):  2.360E-02 2.220E-02

     total cpu time spent up to now is       51.5 secs

     total energy              =    -516.09901596 Ry
     estimated scf accuracy    <       0.49419071 Ry

     total magnetization       =    14.39 Bohr mag/cell
     absolute magnetization    =    14.39 Bohr mag/cell

     iteration # 24     ecut=    60.00 Ry     beta= 0.40
     Davidson diagonalization with overlap

---- Real-time Memory Report at c_bands before calling an iterative solver
           165 MiB given to the printing process from OS
           130 MiB allocation reported by mallinfo(arena+hblkhd)
        482093 MiB available memory on the node where the printing process lives
------------------
     ethr =  6.77E-04,  avg # of iterations =  1.0

     negative rho (up, down):  2.358E-02 2.223E-02

     total cpu time spent up to now is       53.4 secs

     total energy              =    -516.10145101 Ry
     estimated scf accuracy    <       0.47446526 Ry

     total magnetization       =    14.49 Bohr mag/cell
     absolute magnetization    =    14.50 Bohr mag/cell

     iteration # 25     ecut=    60.00 Ry     beta= 0.40
     Davidson diagonalization with overlap

---- Real-time Memory Report at c_bands before calling an iterative solver
           165 MiB given to the printing process from OS
           130 MiB allocation reported by mallinfo(arena+hblkhd)
        482091 MiB available memory on the node where the printing process lives
------------------
     ethr =  6.77E-04,  avg # of iterations =  1.0

     negative rho (up, down):  2.371E-02 2.218E-02

     total cpu time spent up to now is       55.3 secs

     total energy              =    -516.09683843 Ry
     estimated scf accuracy    <       0.43877441 Ry

     total magnetization       =    14.52 Bohr mag/cell
     absolute magnetization    =    14.52 Bohr mag/cell

     iteration # 26     ecut=    60.00 Ry     beta= 0.40
     Davidson diagonalization with overlap

---- Real-time Memory Report at c_bands before calling an iterative solver
           165 MiB given to the printing process from OS
           130 MiB allocation reported by mallinfo(arena+hblkhd)
        482093 MiB available memory on the node where the printing process lives
------------------
     ethr =  6.45E-04,  avg # of iterations =  1.0

     negative rho (up, down):  2.358E-02 2.226E-02

     total cpu time spent up to now is       57.2 secs

     total energy              =    -516.08806862 Ry
     estimated scf accuracy    <       0.44023825 Ry

     total magnetization       =    14.43 Bohr mag/cell
     absolute magnetization    =    14.43 Bohr mag/cell

     iteration # 27     ecut=    60.00 Ry     beta= 0.40
     Davidson diagonalization with overlap

---- Real-time Memory Report at c_bands before calling an iterative solver
           165 MiB given to the printing process from OS
           130 MiB allocation reported by mallinfo(arena+hblkhd)
        482091 MiB available memory on the node where the printing process lives
------------------
     ethr =  6.45E-04,  avg # of iterations =  1.5

     negative rho (up, down):  2.364E-02 2.227E-02

     total cpu time spent up to now is       59.3 secs

     total energy              =    -516.11500841 Ry
     estimated scf accuracy    <       0.24734561 Ry

     total magnetization       =    12.65 Bohr mag/cell
     absolute magnetization    =    14.15 Bohr mag/cell

     iteration # 28     ecut=    60.00 Ry     beta= 0.40
     Davidson diagonalization with overlap

---- Real-time Memory Report at c_bands before calling an iterative solver
           165 MiB given to the printing process from OS
           130 MiB allocation reported by mallinfo(arena+hblkhd)
        482093 MiB available memory on the node where the printing process lives
------------------
     ethr =  3.64E-04,  avg # of iterations =  2.2

     negative rho (up, down):  2.369E-02 2.219E-02

     total cpu time spent up to now is       61.5 secs

     total energy              =    -516.18677208 Ry
     estimated scf accuracy    <       1.83725416 Ry

     total magnetization       =    10.44 Bohr mag/cell
     absolute magnetization    =    14.64 Bohr mag/cell

     iteration # 29     ecut=    60.00 Ry     beta= 0.40
     Davidson diagonalization with overlap

---- Real-time Memory Report at c_bands before calling an iterative solver
           165 MiB given to the printing process from OS
           130 MiB allocation reported by mallinfo(arena+hblkhd)
        482091 MiB available memory on the node where the printing process lives
------------------
     ethr =  3.64E-04,  avg # of iterations =  1.5

     negative rho (up, down):  2.325E-02 2.263E-02

     total cpu time spent up to now is       63.6 secs

     total energy              =    -516.10189008 Ry
     estimated scf accuracy    <       3.38894160 Ry

     total magnetization       =     9.92 Bohr mag/cell
     absolute magnetization    =    13.86 Bohr mag/cell

     iteration # 30     ecut=    60.00 Ry     beta= 0.40
     Davidson diagonalization with overlap

---- Real-time Memory Report at c_bands before calling an iterative solver
           165 MiB given to the printing process from OS
           130 MiB allocation reported by mallinfo(arena+hblkhd)
        482092 MiB available memory on the node where the printing process lives
------------------
     ethr =  3.64E-04,  avg # of iterations =  1.6

     negative rho (up, down):  2.310E-02 2.270E-02

     total cpu time spent up to now is       65.6 secs

     total energy              =    -516.10069937 Ry
     estimated scf accuracy    <       0.65273884 Ry

     total magnetization       =    11.90 Bohr mag/cell
     absolute magnetization    =    15.22 Bohr mag/cell

     iteration # 31     ecut=    60.00 Ry     beta= 0.40
     Davidson diagonalization with overlap

---- Real-time Memory Report at c_bands before calling an iterative solver
           165 MiB given to the printing process from OS
           130 MiB allocation reported by mallinfo(arena+hblkhd)
        482091 MiB available memory on the node where the printing process lives
------------------
     ethr =  3.64E-04,  avg # of iterations =  1.3

     negative rho (up, down):  2.330E-02 2.249E-02

     total cpu time spent up to now is       67.6 secs

     total energy              =    -516.12873074 Ry
     estimated scf accuracy    <       0.14205530 Ry

     total magnetization       =    14.84 Bohr mag/cell
     absolute magnetization    =    16.07 Bohr mag/cell

     iteration # 32     ecut=    60.00 Ry     beta= 0.40
     Davidson diagonalization with overlap

---- Real-time Memory Report at c_bands before calling an iterative solver
           165 MiB given to the printing process from OS
           130 MiB allocation reported by mallinfo(arena+hblkhd)
        482092 MiB available memory on the node where the printing process lives
------------------
     ethr =  2.09E-04,  avg # of iterations =  3.2

     negative rho (up, down):  2.338E-02 2.235E-02

     total cpu time spent up to now is       69.9 secs

     total energy              =    -516.15425693 Ry
     estimated scf accuracy    <       0.11113132 Ry

     total magnetization       =    13.83 Bohr mag/cell
     absolute magnetization    =    15.75 Bohr mag/cell

     iteration # 33     ecut=    60.00 Ry     beta= 0.40
     Davidson diagonalization with overlap

---- Real-time Memory Report at c_bands before calling an iterative solver
           166 MiB given to the printing process from OS
           130 MiB allocation reported by mallinfo(arena+hblkhd)
        482089 MiB available memory on the node where the printing process lives
------------------
     ethr =  1.63E-04,  avg # of iterations =  3.3

     negative rho (up, down):  2.324E-02 2.248E-02

     total cpu time spent up to now is       72.5 secs

     total energy              =    -516.18334437 Ry
     estimated scf accuracy    <       0.25053027 Ry

     total magnetization       =    13.98 Bohr mag/cell
     absolute magnetization    =    16.71 Bohr mag/cell

     iteration # 34     ecut=    60.00 Ry     beta= 0.40
     Davidson diagonalization with overlap

---- Real-time Memory Report at c_bands before calling an iterative solver
           166 MiB given to the printing process from OS
           130 MiB allocation reported by mallinfo(arena+hblkhd)
        482090 MiB available memory on the node where the printing process lives
------------------
     ethr =  1.63E-04,  avg # of iterations =  1.4

     negative rho (up, down):  2.314E-02 2.267E-02

     total cpu time spent up to now is       74.6 secs

     total energy              =    -516.17021506 Ry
     estimated scf accuracy    <       0.23760260 Ry

     total magnetization       =    14.10 Bohr mag/cell
     absolute magnetization    =    16.90 Bohr mag/cell

     iteration # 35     ecut=    60.00 Ry     beta= 0.40
     Davidson diagonalization with overlap

---- Real-time Memory Report at c_bands before calling an iterative solver
           166 MiB given to the printing process from OS
           130 MiB allocation reported by mallinfo(arena+hblkhd)
        482087 MiB available memory on the node where the printing process lives
------------------
     ethr =  1.63E-04,  avg # of iterations =  1.0

     negative rho (up, down):  2.326E-02 2.242E-02

     total cpu time spent up to now is       76.5 secs

     total energy              =    -516.17526215 Ry
     estimated scf accuracy    <       0.16406799 Ry

     total magnetization       =    14.52 Bohr mag/cell
     absolute magnetization    =    16.91 Bohr mag/cell

     iteration # 36     ecut=    60.00 Ry     beta= 0.40
     Davidson diagonalization with overlap

---- Real-time Memory Report at c_bands before calling an iterative solver
           166 MiB given to the printing process from OS
           130 MiB allocation reported by mallinfo(arena+hblkhd)
        482090 MiB available memory on the node where the printing process lives
------------------
     ethr =  1.63E-04,  avg # of iterations =  1.1

     negative rho (up, down):  2.330E-02 2.233E-02

     total cpu time spent up to now is       78.4 secs

     total energy              =    -516.17427632 Ry
     estimated scf accuracy    <       0.12684855 Ry

     total magnetization       =    14.60 Bohr mag/cell
     absolute magnetization    =    16.99 Bohr mag/cell

     iteration # 37     ecut=    60.00 Ry     beta= 0.40
     Davidson diagonalization with overlap

---- Real-time Memory Report at c_bands before calling an iterative solver
           166 MiB given to the printing process from OS
           130 MiB allocation reported by mallinfo(arena+hblkhd)
        482089 MiB available memory on the node where the printing process lives
------------------
     ethr =  1.63E-04,  avg # of iterations =  1.1

     negative rho (up, down):  2.332E-02 2.231E-02

     total cpu time spent up to now is       80.4 secs

     total energy              =    -516.17675394 Ry
     estimated scf accuracy    <       0.11637709 Ry

     total magnetization       =    14.75 Bohr mag/cell
     absolute magnetization    =    17.02 Bohr mag/cell

     iteration # 38     ecut=    60.00 Ry     beta= 0.40
     Davidson diagonalization with overlap

---- Real-time Memory Report at c_bands before calling an iterative solver
           166 MiB given to the printing process from OS
           130 MiB allocation reported by mallinfo(arena+hblkhd)
        482091 MiB available memory on the node where the printing process lives
------------------
     ethr =  1.63E-04,  avg # of iterations =  1.0

     negative rho (up, down):  2.328E-02 2.236E-02

     total cpu time spent up to now is       82.3 secs

     total energy              =    -516.17632408 Ry
     estimated scf accuracy    <       0.11763624 Ry

     total magnetization       =    14.74 Bohr mag/cell
     absolute magnetization    =    17.01 Bohr mag/cell

     iteration # 39     ecut=    60.00 Ry     beta= 0.40
     Davidson diagonalization with overlap

---- Real-time Memory Report at c_bands before calling an iterative solver
           166 MiB given to the printing process from OS
           130 MiB allocation reported by mallinfo(arena+hblkhd)
        482089 MiB available memory on the node where the printing process lives
------------------
     ethr =  1.63E-04,  avg # of iterations =  1.0

     negative rho (up, down):  2.328E-02 2.237E-02

     total cpu time spent up to now is       84.2 secs

     total energy              =    -516.17585084 Ry
     estimated scf accuracy    <       0.11679006 Ry

     total magnetization       =    14.73 Bohr mag/cell
     absolute magnetization    =    16.99 Bohr mag/cell

     iteration # 40     ecut=    60.00 Ry     beta= 0.40
     Davidson diagonalization with overlap

---- Real-time Memory Report at c_bands before calling an iterative solver
           166 MiB given to the printing process from OS
           130 MiB allocation reported by mallinfo(arena+hblkhd)
        482091 MiB available memory on the node where the printing process lives
------------------
     ethr =  1.63E-04,  avg # of iterations =  1.0

     negative rho (up, down):  2.329E-02 2.231E-02

     total cpu time spent up to now is       86.1 secs

     total energy              =    -516.17690307 Ry
     estimated scf accuracy    <       0.13382695 Ry

     total magnetization       =    14.68 Bohr mag/cell
     absolute magnetization    =    16.93 Bohr mag/cell

     iteration # 41     ecut=    60.00 Ry     beta= 0.40
     Davidson diagonalization with overlap

---- Real-time Memory Report at c_bands before calling an iterative solver
           166 MiB given to the printing process from OS
           130 MiB allocation reported by mallinfo(arena+hblkhd)
        482090 MiB available memory on the node where the printing process lives
------------------
     ethr =  1.63E-04,  avg # of iterations =  1.3

     negative rho (up, down):  2.321E-02 2.244E-02

     total cpu time spent up to now is       88.1 secs

     total energy              =    -516.17139311 Ry
     estimated scf accuracy    <       0.25573684 Ry

     total magnetization       =    14.35 Bohr mag/cell
     absolute magnetization    =    16.65 Bohr mag/cell

     iteration # 42     ecut=    60.00 Ry     beta= 0.40
     Davidson diagonalization with overlap

---- Real-time Memory Report at c_bands before calling an iterative solver
           166 MiB given to the printing process from OS
           130 MiB allocation reported by mallinfo(arena+hblkhd)
        482093 MiB available memory on the node where the printing process lives
------------------
     ethr =  1.63E-04,  avg # of iterations =  1.1

     negative rho (up, down):  2.317E-02 2.248E-02

     total cpu time spent up to now is       90.0 secs

     total energy              =    -516.17832982 Ry
     estimated scf accuracy    <       0.10921409 Ry

     total magnetization       =    14.14 Bohr mag/cell
     absolute magnetization    =    16.55 Bohr mag/cell

     iteration # 43     ecut=    60.00 Ry     beta= 0.40
     Davidson diagonalization with overlap

---- Real-time Memory Report at c_bands before calling an iterative solver
           166 MiB given to the printing process from OS
           130 MiB allocation reported by mallinfo(arena+hblkhd)
        482090 MiB available memory on the node where the printing process lives
------------------
     ethr =  1.61E-04,  avg # of iterations =  1.0

     negative rho (up, down):  2.291E-02 2.282E-02

     total cpu time spent up to now is       91.9 secs

     total energy              =    -516.14690895 Ry
     estimated scf accuracy    <       0.08294993 Ry

     total magnetization       =    14.26 Bohr mag/cell
     absolute magnetization    =    16.75 Bohr mag/cell

     iteration # 44     ecut=    60.00 Ry     beta= 0.40
     Davidson diagonalization with overlap

---- Real-time Memory Report at c_bands before calling an iterative solver
           166 MiB given to the printing process from OS
           130 MiB allocation reported by mallinfo(arena+hblkhd)
        482092 MiB available memory on the node where the printing process lives
------------------
     ethr =  1.22E-04,  avg # of iterations =  7.0

     negative rho (up, down):  2.294E-02 2.273E-02

     total cpu time spent up to now is       94.9 secs

     total energy              =    -516.28613357 Ry
     estimated scf accuracy    <       1.10144047 Ry

     total magnetization       =    14.36 Bohr mag/cell
     absolute magnetization    =    16.66 Bohr mag/cell

     iteration # 45     ecut=    60.00 Ry     beta= 0.40
     Davidson diagonalization with overlap

---- Real-time Memory Report at c_bands before calling an iterative solver
           166 MiB given to the printing process from OS
           130 MiB allocation reported by mallinfo(arena+hblkhd)
        482090 MiB available memory on the node where the printing process lives
------------------
     ethr =  1.22E-04,  avg # of iterations =  1.4

     negative rho (up, down):  2.305E-02 2.258E-02

     total cpu time spent up to now is       96.9 secs

     total energy              =    -516.26536672 Ry
     estimated scf accuracy    <       1.13292532 Ry

     total magnetization       =    14.26 Bohr mag/cell
     absolute magnetization    =    16.65 Bohr mag/cell

     iteration # 46     ecut=    60.00 Ry     beta= 0.40
     Davidson diagonalization with overlap

---- Real-time Memory Report at c_bands before calling an iterative solver
           166 MiB given to the printing process from OS
           130 MiB allocation reported by mallinfo(arena+hblkhd)
        482092 MiB available memory on the node where the printing process lives
------------------
     ethr =  1.22E-04,  avg # of iterations =  1.9

     negative rho (up, down):  2.306E-02 2.262E-02

     total cpu time spent up to now is       99.1 secs

     total energy              =    -516.26643378 Ry
     estimated scf accuracy    <       1.73433366 Ry

     total magnetization       =    13.75 Bohr mag/cell
     absolute magnetization    =    16.37 Bohr mag/cell

     iteration # 47     ecut=    60.00 Ry     beta= 0.40
     Davidson diagonalization with overlap

---- Real-time Memory Report at c_bands before calling an iterative solver
           166 MiB given to the printing process from OS
           130 MiB allocation reported by mallinfo(arena+hblkhd)
        482090 MiB available memory on the node where the printing process lives
------------------
     ethr =  1.22E-04,  avg # of iterations =  1.0

     negative rho (up, down):  2.310E-02 2.254E-02

     total cpu time spent up to now is      101.0 secs

     total energy              =    -516.27065508 Ry
     estimated scf accuracy    <       1.44952275 Ry

     total magnetization       =    14.14 Bohr mag/cell
     absolute magnetization    =    16.39 Bohr mag/cell

     iteration # 48     ecut=    60.00 Ry     beta= 0.40
     Davidson diagonalization with overlap

---- Real-time Memory Report at c_bands before calling an iterative solver
           166 MiB given to the printing process from OS
           130 MiB allocation reported by mallinfo(arena+hblkhd)
        482092 MiB available memory on the node where the printing process lives
------------------
     ethr =  1.22E-04,  avg # of iterations =  1.0

     negative rho (up, down):  2.299E-02 2.267E-02

     total cpu time spent up to now is      102.9 secs

     total energy              =    -516.27190291 Ry
     estimated scf accuracy    <       1.75284801 Ry

     total magnetization       =    13.77 Bohr mag/cell
     absolute magnetization    =    16.39 Bohr mag/cell

     iteration # 49     ecut=    60.00 Ry     beta= 0.40
     Davidson diagonalization with overlap

---- Real-time Memory Report at c_bands before calling an iterative solver
           166 MiB given to the printing process from OS
           130 MiB allocation reported by mallinfo(arena+hblkhd)
        482090 MiB available memory on the node where the printing process lives
------------------
     ethr =  1.22E-04,  avg # of iterations =  1.0

     negative rho (up, down):  2.319E-02 2.254E-02

     total cpu time spent up to now is      104.8 secs

     total energy              =    -516.24127622 Ry
     estimated scf accuracy    <       1.58807653 Ry

     total magnetization       =    14.24 Bohr mag/cell
     absolute magnetization    =    16.35 Bohr mag/cell

     iteration # 50     ecut=    60.00 Ry     beta= 0.40
     Davidson diagonalization with overlap

---- Real-time Memory Report at c_bands before calling an iterative solver
           166 MiB given to the printing process from OS
           130 MiB allocation reported by mallinfo(arena+hblkhd)
        482092 MiB available memory on the node where the printing process lives
------------------
     ethr =  1.22E-04,  avg # of iterations =  4.8

     negative rho (up, down):  2.287E-02 2.275E-02

     total cpu time spent up to now is      107.2 secs

     total energy              =    -516.25175465 Ry
     estimated scf accuracy    <       2.45742600 Ry

     total magnetization       =    13.03 Bohr mag/cell
     absolute magnetization    =    17.44 Bohr mag/cell

     iteration # 51     ecut=    60.00 Ry     beta= 0.40
     Davidson diagonalization with overlap

---- Real-time Memory Report at c_bands before calling an iterative solver
           166 MiB given to the printing process from OS
           130 MiB allocation reported by mallinfo(arena+hblkhd)
        482090 MiB available memory on the node where the printing process lives
------------------
     ethr =  1.22E-04,  avg # of iterations =  3.9

     negative rho (up, down):  2.304E-02 2.263E-02

     total cpu time spent up to now is      109.6 secs

     total energy              =    -516.26483147 Ry
     estimated scf accuracy    <       2.84386562 Ry

     total magnetization       =    14.29 Bohr mag/cell
     absolute magnetization    =    16.14 Bohr mag/cell

     iteration # 52     ecut=    60.00 Ry     beta= 0.40
     Davidson diagonalization with overlap

---- Real-time Memory Report at c_bands before calling an iterative solver
           166 MiB given to the printing process from OS
           130 MiB allocation reported by mallinfo(arena+hblkhd)
        482093 MiB available memory on the node where the printing process lives
------------------
     ethr =  1.22E-04,  avg # of iterations =  1.6

     negative rho (up, down):  2.293E-02 2.257E-02

     total cpu time spent up to now is      111.6 secs

     total energy              =    -516.25867310 Ry
     estimated scf accuracy    <       2.62706065 Ry

     total magnetization       =    13.67 Bohr mag/cell
     absolute magnetization    =    16.57 Bohr mag/cell

     iteration # 53     ecut=    60.00 Ry     beta= 0.40
     Davidson diagonalization with overlap

---- Real-time Memory Report at c_bands before calling an iterative solver
           166 MiB given to the printing process from OS
           130 MiB allocation reported by mallinfo(arena+hblkhd)
        482090 MiB available memory on the node where the printing process lives
------------------
     ethr =  1.22E-04,  avg # of iterations =  6.9

     negative rho (up, down):  2.342E-02 2.235E-02

     total cpu time spent up to now is      114.7 secs

     total energy              =    -516.06067617 Ry
     estimated scf accuracy    <       9.27165549 Ry

     total magnetization       =    11.59 Bohr mag/cell
     absolute magnetization    =    12.95 Bohr mag/cell

     iteration # 54     ecut=    60.00 Ry     beta= 0.40
     Davidson diagonalization with overlap

---- Real-time Memory Report at c_bands before calling an iterative solver
           166 MiB given to the printing process from OS
           130 MiB allocation reported by mallinfo(arena+hblkhd)
        482092 MiB available memory on the node where the printing process lives
------------------
     ethr =  1.22E-04,  avg # of iterations =  6.8

     negative rho (up, down):  2.259E-02 2.281E-02

     total cpu time spent up to now is      117.4 secs

     total energy              =    -516.26805995 Ry
     estimated scf accuracy    <       2.21387809 Ry

     total magnetization       =     9.03 Bohr mag/cell
     absolute magnetization    =    17.62 Bohr mag/cell

     iteration # 55     ecut=    60.00 Ry     beta= 0.40
     Davidson diagonalization with overlap

---- Real-time Memory Report at c_bands before calling an iterative solver
           166 MiB given to the printing process from OS
           130 MiB allocation reported by mallinfo(arena+hblkhd)
        482090 MiB available memory on the node where the printing process lives
------------------
     ethr =  1.22E-04,  avg # of iterations =  3.1

     negative rho (up, down):  2.391E-02 2.196E-02

     total cpu time spent up to now is      119.7 secs

     total energy              =    -516.08267215 Ry
     estimated scf accuracy    <       2.37704965 Ry

     total magnetization       =     8.69 Bohr mag/cell
     absolute magnetization    =    17.84 Bohr mag/cell

     iteration # 56     ecut=    60.00 Ry     beta= 0.40
     Davidson diagonalization with overlap

---- Real-time Memory Report at c_bands before calling an iterative solver
           166 MiB given to the printing process from OS
           130 MiB allocation reported by mallinfo(arena+hblkhd)
        482092 MiB available memory on the node where the printing process lives
------------------
     ethr =  1.22E-04,  avg # of iterations =  4.1

     negative rho (up, down):  2.299E-02 2.266E-02

     total cpu time spent up to now is      122.3 secs

     total energy              =    -516.13997871 Ry
     estimated scf accuracy    <       1.97123927 Ry

     total magnetization       =    11.72 Bohr mag/cell
     absolute magnetization    =    16.37 Bohr mag/cell

     iteration # 57     ecut=    60.00 Ry     beta= 0.40
     Davidson diagonalization with overlap

---- Real-time Memory Report at c_bands before calling an iterative solver
           166 MiB given to the printing process from OS
           130 MiB allocation reported by mallinfo(arena+hblkhd)
        482090 MiB available memory on the node where the printing process lives
------------------
     ethr =  1.22E-04,  avg # of iterations =  4.1

     negative rho (up, down):  2.267E-02 2.292E-02

     total cpu time spent up to now is      124.7 secs

     total energy              =    -516.21585745 Ry
     estimated scf accuracy    <       0.07182084 Ry

     total magnetization       =    13.61 Bohr mag/cell
     absolute magnetization    =    18.23 Bohr mag/cell

     iteration # 58     ecut=    60.00 Ry     beta= 0.40
     Davidson diagonalization with overlap

---- Real-time Memory Report at c_bands before calling an iterative solver
           166 MiB given to the printing process from OS
           130 MiB allocation reported by mallinfo(arena+hblkhd)
        482092 MiB available memory on the node where the printing process lives
------------------
     ethr =  1.06E-04,  avg # of iterations =  2.5

     negative rho (up, down):  2.287E-02 2.274E-02

     total cpu time spent up to now is      127.1 secs

     total energy              =    -516.21128985 Ry
     estimated scf accuracy    <       0.12249124 Ry

     total magnetization       =    14.64 Bohr mag/cell
     absolute magnetization    =    18.34 Bohr mag/cell

     iteration # 59     ecut=    60.00 Ry     beta= 0.40
     Davidson diagonalization with overlap

---- Real-time Memory Report at c_bands before calling an iterative solver
           166 MiB given to the printing process from OS
           130 MiB allocation reported by mallinfo(arena+hblkhd)
        482090 MiB available memory on the node where the printing process lives
------------------
     ethr =  1.06E-04,  avg # of iterations =  3.8

     negative rho (up, down):  2.325E-02 2.242E-02

     total cpu time spent up to now is      129.5 secs

     total energy              =    -516.23820108 Ry
     estimated scf accuracy    <       0.11194610 Ry

     total magnetization       =    13.96 Bohr mag/cell
     absolute magnetization    =    18.64 Bohr mag/cell

     iteration # 60     ecut=    60.00 Ry     beta= 0.40
     Davidson diagonalization with overlap

---- Real-time Memory Report at c_bands before calling an iterative solver
           166 MiB given to the printing process from OS
           130 MiB allocation reported by mallinfo(arena+hblkhd)
        482093 MiB available memory on the node where the printing process lives
------------------
     ethr =  1.06E-04,  avg # of iterations =  1.7

     negative rho (up, down):  2.309E-02 2.249E-02

     total cpu time spent up to now is      131.5 secs

     total energy              =    -516.25859148 Ry
     estimated scf accuracy    <       0.14957692 Ry

     total magnetization       =    13.70 Bohr mag/cell
     absolute magnetization    =    18.23 Bohr mag/cell

     iteration # 61     ecut=    60.00 Ry     beta= 0.40
     Davidson diagonalization with overlap

---- Real-time Memory Report at c_bands before calling an iterative solver
           166 MiB given to the printing process from OS
           130 MiB allocation reported by mallinfo(arena+hblkhd)
        482090 MiB available memory on the node where the printing process lives
------------------
     ethr =  1.06E-04,  avg # of iterations =  1.1

     negative rho (up, down):  2.317E-02 2.243E-02

     total cpu time spent up to now is      133.5 secs

     total energy              =    -516.26559131 Ry
     estimated scf accuracy    <       0.11824523 Ry

     total magnetization       =    14.30 Bohr mag/cell
     absolute magnetization    =    18.55 Bohr mag/cell

     iteration # 62     ecut=    60.00 Ry     beta= 0.40
     Davidson diagonalization with overlap

---- Real-time Memory Report at c_bands before calling an iterative solver
           166 MiB given to the printing process from OS
           130 MiB allocation reported by mallinfo(arena+hblkhd)
        482092 MiB available memory on the node where the printing process lives
------------------
     ethr =  1.06E-04,  avg # of iterations =  1.7

     negative rho (up, down):  2.315E-02 2.244E-02

     total cpu time spent up to now is      135.6 secs

     total energy              =    -516.26872371 Ry
     estimated scf accuracy    <       0.08195870 Ry

     total magnetization       =    14.32 Bohr mag/cell
     absolute magnetization    =    18.33 Bohr mag/cell

     iteration # 63     ecut=    60.00 Ry     beta= 0.40
     Davidson diagonalization with overlap

[...]

     iteration #480     ecut=    60.00 Ry     beta= 0.40
     Davidson diagonalization with overlap

---- Real-time Memory Report at c_bands before calling an iterative solver
           168 MiB given to the printing process from OS
           130 MiB allocation reported by mallinfo(arena+hblkhd)
        482038 MiB available memory on the node where the printing process lives
------------------
     ethr =  1.57E-07,  avg # of iterations =  3.1

     negative rho (up, down):  2.322E-02 2.223E-02

     total cpu time spent up to now is     1061.7 secs

     total energy              =    -516.25455947 Ry
     estimated scf accuracy    <       0.00401664 Ry

     total magnetization       =    14.50 Bohr mag/cell
     absolute magnetization    =    18.17 Bohr mag/cell

     iteration #481     ecut=    60.00 Ry     beta= 0.40
     Davidson diagonalization with overlap

---- Real-time Memory Report at c_bands before calling an iterative solver
           168 MiB given to the printing process from OS
           130 MiB allocation reported by mallinfo(arena+hblkhd)
        482041 MiB available memory on the node where the printing process lives
------------------
     ethr =  1.57E-07,  avg # of iterations =  1.4

     negative rho (up, down):  2.322E-02 2.223E-02

     total cpu time spent up to now is     1063.7 secs

     total energy              =    -516.25454321 Ry
     estimated scf accuracy    <       0.00583166 Ry

     total magnetization       =    14.50 Bohr mag/cell
     absolute magnetization    =    18.16 Bohr mag/cell

     iteration #482     ecut=    60.00 Ry     beta= 0.40
     Davidson diagonalization with overlap

---- Real-time Memory Report at c_bands before calling an iterative solver
           168 MiB given to the printing process from OS
           130 MiB allocation reported by mallinfo(arena+hblkhd)
        482041 MiB available memory on the node where the printing process lives
------------------
     ethr =  1.57E-07,  avg # of iterations =  1.0

     negative rho (up, down):  2.322E-02 2.223E-02

     total cpu time spent up to now is     1065.6 secs

     total energy              =    -516.25455802 Ry
     estimated scf accuracy    <       0.00540373 Ry

     total magnetization       =    14.50 Bohr mag/cell
     absolute magnetization    =    18.16 Bohr mag/cell

     iteration #483     ecut=    60.00 Ry     beta= 0.40
     Davidson diagonalization with overlap

---- Real-time Memory Report at c_bands before calling an iterative solver
           168 MiB given to the printing process from OS
           130 MiB allocation reported by mallinfo(arena+hblkhd)
        482041 MiB available memory on the node where the printing process lives
------------------
     ethr =  1.57E-07,  avg # of iterations =  1.1

     negative rho (up, down):  2.322E-02 2.223E-02

     total cpu time spent up to now is     1067.6 secs

     total energy              =    -516.25455187 Ry
     estimated scf accuracy    <       0.00582398 Ry

     total magnetization       =    14.50 Bohr mag/cell
     absolute magnetization    =    18.16 Bohr mag/cell

     iteration #484     ecut=    60.00 Ry     beta= 0.40
     Davidson diagonalization with overlap

---- Real-time Memory Report at c_bands before calling an iterative solver
           168 MiB given to the printing process from OS
           130 MiB allocation reported by mallinfo(arena+hblkhd)
        482041 MiB available memory on the node where the printing process lives
------------------
     ethr =  1.57E-07,  avg # of iterations =  1.0

     negative rho (up, down):  2.322E-02 2.223E-02

     total cpu time spent up to now is     1069.5 secs

     total energy              =    -516.25454180 Ry
     estimated scf accuracy    <       0.00572350 Ry

     total magnetization       =    14.50 Bohr mag/cell
     absolute magnetization    =    18.17 Bohr mag/cell

     iteration #485     ecut=    60.00 Ry     beta= 0.40
     Davidson diagonalization with overlap

---- Real-time Memory Report at c_bands before calling an iterative solver
           168 MiB given to the printing process from OS
           130 MiB allocation reported by mallinfo(arena+hblkhd)
        482040 MiB available memory on the node where the printing process lives
------------------
     ethr =  1.57E-07,  avg # of iterations =  1.0

     negative rho (up, down):  2.322E-02 2.223E-02

     total cpu time spent up to now is     1071.4 secs

     total energy              =    -516.25452225 Ry
     estimated scf accuracy    <       0.00552501 Ry

     total magnetization       =    14.50 Bohr mag/cell
     absolute magnetization    =    18.17 Bohr mag/cell

     iteration #486     ecut=    60.00 Ry     beta= 0.40
     Davidson diagonalization with overlap

---- Real-time Memory Report at c_bands before calling an iterative solver
           168 MiB given to the printing process from OS
           130 MiB allocation reported by mallinfo(arena+hblkhd)
        482041 MiB available memory on the node where the printing process lives
------------------
     ethr =  1.57E-07,  avg # of iterations =  1.0

     negative rho (up, down):  2.322E-02 2.223E-02

     total cpu time spent up to now is     1073.3 secs

     total energy              =    -516.25450352 Ry
     estimated scf accuracy    <       0.00502942 Ry

     total magnetization       =    14.50 Bohr mag/cell
     absolute magnetization    =    18.17 Bohr mag/cell

     iteration #487     ecut=    60.00 Ry     beta= 0.40
     Davidson diagonalization with overlap

---- Real-time Memory Report at c_bands before calling an iterative solver
           168 MiB given to the printing process from OS
           130 MiB allocation reported by mallinfo(arena+hblkhd)
        482041 MiB available memory on the node where the printing process lives
------------------
     ethr =  1.57E-07,  avg # of iterations =  1.1

     negative rho (up, down):  2.323E-02 2.222E-02

     total cpu time spent up to now is     1075.2 secs

     total energy              =    -516.25437000 Ry
     estimated scf accuracy    <       0.00458412 Ry

     total magnetization       =    14.50 Bohr mag/cell
     absolute magnetization    =    18.17 Bohr mag/cell

     iteration #488     ecut=    60.00 Ry     beta= 0.40
     Davidson diagonalization with overlap

---- Real-time Memory Report at c_bands before calling an iterative solver
           168 MiB given to the printing process from OS
           130 MiB allocation reported by mallinfo(arena+hblkhd)
        482041 MiB available memory on the node where the printing process lives
------------------
     ethr =  1.57E-07,  avg # of iterations =  8.1

     negative rho (up, down):  2.322E-02 2.223E-02

     total cpu time spent up to now is     1078.4 secs

     total energy              =    -516.25384778 Ry
     estimated scf accuracy    <       0.15072441 Ry

     total magnetization       =    14.50 Bohr mag/cell
     absolute magnetization    =    18.38 Bohr mag/cell

     iteration #489     ecut=    60.00 Ry     beta= 0.40
     Davidson diagonalization with overlap

---- Real-time Memory Report at c_bands before calling an iterative solver
           168 MiB given to the printing process from OS
           130 MiB allocation reported by mallinfo(arena+hblkhd)
        482040 MiB available memory on the node where the printing process lives
------------------
     ethr =  1.57E-07,  avg # of iterations =  8.6

     negative rho (up, down):  2.322E-02 2.223E-02

     total cpu time spent up to now is     1081.7 secs

     total energy              =    -516.25459579 Ry
     estimated scf accuracy    <       0.01763300 Ry

     total magnetization       =    14.50 Bohr mag/cell
     absolute magnetization    =    18.15 Bohr mag/cell

     iteration #490     ecut=    60.00 Ry     beta= 0.40
     Davidson diagonalization with overlap

---- Real-time Memory Report at c_bands before calling an iterative solver
           168 MiB given to the printing process from OS
           130 MiB allocation reported by mallinfo(arena+hblkhd)
        482040 MiB available memory on the node where the printing process lives
------------------
     ethr =  1.57E-07,  avg # of iterations =  1.2

     negative rho (up, down):  2.322E-02 2.223E-02

     total cpu time spent up to now is     1083.7 secs

     total energy              =    -516.25448393 Ry
     estimated scf accuracy    <       0.01716130 Ry

     total magnetization       =    14.50 Bohr mag/cell
     absolute magnetization    =    18.15 Bohr mag/cell

     iteration #491     ecut=    60.00 Ry     beta= 0.40
     Davidson diagonalization with overlap

---- Real-time Memory Report at c_bands before calling an iterative solver
           168 MiB given to the printing process from OS
           130 MiB allocation reported by mallinfo(arena+hblkhd)
        482040 MiB available memory on the node where the printing process lives
------------------
     ethr =  1.57E-07,  avg # of iterations =  5.3

     negative rho (up, down):  2.322E-02 2.222E-02

     total cpu time spent up to now is     1086.6 secs

     total energy              =    -516.25455640 Ry
     estimated scf accuracy    <       0.00003981 Ry

     total magnetization       =    14.50 Bohr mag/cell
     absolute magnetization    =    18.20 Bohr mag/cell

     iteration #492     ecut=    60.00 Ry     beta= 0.40
     Davidson diagonalization with overlap

---- Real-time Memory Report at c_bands before calling an iterative solver
           168 MiB given to the printing process from OS
           130 MiB allocation reported by mallinfo(arena+hblkhd)
        482041 MiB available memory on the node where the printing process lives
------------------
     c_bands:  1 eigenvalues not converged
     ethr =  5.85E-08,  avg # of iterations =  8.9

     negative rho (up, down):  2.322E-02 2.222E-02

     total cpu time spent up to now is     1090.0 secs

     total energy              =    -516.25477551 Ry
     estimated scf accuracy    <       0.05983667 Ry

     total magnetization       =    14.50 Bohr mag/cell
     absolute magnetization    =    18.31 Bohr mag/cell

     iteration #493     ecut=    60.00 Ry     beta= 0.40
     Davidson diagonalization with overlap

---- Real-time Memory Report at c_bands before calling an iterative solver
           168 MiB given to the printing process from OS
           130 MiB allocation reported by mallinfo(arena+hblkhd)
        482040 MiB available memory on the node where the printing process lives
------------------
     ethr =  5.85E-08,  avg # of iterations =  1.8

     negative rho (up, down):  2.322E-02 2.222E-02

     total cpu time spent up to now is     1092.3 secs

     total energy              =    -516.25466116 Ry
     estimated scf accuracy    <       0.07509579 Ry

     total magnetization       =    14.50 Bohr mag/cell
     absolute magnetization    =    18.33 Bohr mag/cell

     iteration #494     ecut=    60.00 Ry     beta= 0.40
     Davidson diagonalization with overlap

---- Real-time Memory Report at c_bands before calling an iterative solver
           168 MiB given to the printing process from OS
           130 MiB allocation reported by mallinfo(arena+hblkhd)
        482040 MiB available memory on the node where the printing process lives
------------------
     ethr =  5.85E-08,  avg # of iterations =  1.3

     negative rho (up, down):  2.322E-02 2.222E-02

     total cpu time spent up to now is     1094.3 secs

     total energy              =    -516.25453960 Ry
     estimated scf accuracy    <       0.06534646 Ry

     total magnetization       =    14.50 Bohr mag/cell
     absolute magnetization    =    18.32 Bohr mag/cell

     iteration #495     ecut=    60.00 Ry     beta= 0.40
     Davidson diagonalization with overlap

---- Real-time Memory Report at c_bands before calling an iterative solver
           168 MiB given to the printing process from OS
           130 MiB allocation reported by mallinfo(arena+hblkhd)
        482040 MiB available memory on the node where the printing process lives
------------------
     ethr =  5.85E-08,  avg # of iterations =  7.3

     negative rho (up, down):  2.322E-02 2.223E-02

     total cpu time spent up to now is     1097.4 secs

     total energy              =    -516.25457316 Ry
     estimated scf accuracy    <       0.01512612 Ry

     total magnetization       =    14.50 Bohr mag/cell
     absolute magnetization    =    18.26 Bohr mag/cell

     iteration #496     ecut=    60.00 Ry     beta= 0.40
     Davidson diagonalization with overlap

---- Real-time Memory Report at c_bands before calling an iterative solver
           168 MiB given to the printing process from OS
           130 MiB allocation reported by mallinfo(arena+hblkhd)
        482039 MiB available memory on the node where the printing process lives
------------------
     ethr =  5.85E-08,  avg # of iterations =  1.4

     negative rho (up, down):  2.322E-02 2.222E-02

     total cpu time spent up to now is     1099.5 secs

     total energy              =    -516.25452258 Ry
     estimated scf accuracy    <       0.01265047 Ry

     total magnetization       =    14.50 Bohr mag/cell
     absolute magnetization    =    18.26 Bohr mag/cell

     iteration #497     ecut=    60.00 Ry     beta= 0.40
     Davidson diagonalization with overlap

---- Real-time Memory Report at c_bands before calling an iterative solver
           168 MiB given to the printing process from OS
           130 MiB allocation reported by mallinfo(arena+hblkhd)
        482038 MiB available memory on the node where the printing process lives
------------------
     ethr =  5.85E-08,  avg # of iterations =  8.7

     negative rho (up, down):  2.322E-02 2.222E-02

     total cpu time spent up to now is     1102.6 secs

     total energy              =    -516.25457305 Ry
     estimated scf accuracy    <       0.00018761 Ry

     total magnetization       =    14.50 Bohr mag/cell
     absolute magnetization    =    18.20 Bohr mag/cell

     iteration #498     ecut=    60.00 Ry     beta= 0.40
     Davidson diagonalization with overlap

---- Real-time Memory Report at c_bands before calling an iterative solver
           168 MiB given to the printing process from OS
           130 MiB allocation reported by mallinfo(arena+hblkhd)
        482038 MiB available memory on the node where the printing process lives
------------------
     ethr =  5.85E-08,  avg # of iterations =  1.5

     negative rho (up, down):  2.322E-02 2.223E-02

     total cpu time spent up to now is     1104.7 secs

     total energy              =    -516.25457181 Ry
     estimated scf accuracy    <       0.00038555 Ry

     total magnetization       =    14.50 Bohr mag/cell
     absolute magnetization    =    18.20 Bohr mag/cell

     iteration #499     ecut=    60.00 Ry     beta= 0.40
     Davidson diagonalization with overlap

---- Real-time Memory Report at c_bands before calling an iterative solver
           168 MiB given to the printing process from OS
           130 MiB allocation reported by mallinfo(arena+hblkhd)
        482038 MiB available memory on the node where the printing process lives
------------------
     ethr =  5.85E-08,  avg # of iterations =  1.0

     negative rho (up, down):  2.322E-02 2.223E-02

     total cpu time spent up to now is     1106.6 secs

     total energy              =    -516.25457312 Ry
     estimated scf accuracy    <       0.00033801 Ry

     total magnetization       =    14.50 Bohr mag/cell
     absolute magnetization    =    18.20 Bohr mag/cell

     iteration #500     ecut=    60.00 Ry     beta= 0.40
     Davidson diagonalization with overlap

---- Real-time Memory Report at c_bands before calling an iterative solver
           168 MiB given to the printing process from OS
           130 MiB allocation reported by mallinfo(arena+hblkhd)
        482038 MiB available memory on the node where the printing process lives
------------------
     ethr =  5.85E-08,  avg # of iterations =  1.0

     negative rho (up, down):  2.322E-02 2.223E-02

     total cpu time spent up to now is     1108.5 secs

     total energy              =    -516.25457737 Ry
     estimated scf accuracy    <       0.00038274 Ry

     total magnetization       =    14.50 Bohr mag/cell
     absolute magnetization    =    18.20 Bohr mag/cell

     End of self-consistent calculation

     convergence NOT achieved after 500 iterations: stopping

     Writing config to output data dir ./out/aiida.save/ :
     XML data file, charge density

     init_run     :      1.94s CPU      2.07s WALL (       1 calls)
     electrons    :   1072.76s CPU   1106.11s WALL (       1 calls)

     Called by init_run:
     wfcinit      :      0.56s CPU      0.59s WALL (       1 calls)
     wfcinit:atom :      0.01s CPU      0.01s WALL (       5 calls)
     wfcinit:wfcr :      0.50s CPU      0.53s WALL (       5 calls)
     potinit      :      0.51s CPU      0.55s WALL (       1 calls)
     hinit0       :      0.66s CPU      0.68s WALL (       1 calls)

     Called by electrons:
     c_bands      :    624.82s CPU    643.45s WALL (     500 calls)
     sum_band     :    197.38s CPU    206.16s WALL (     500 calls)
     v_of_rho     :    152.24s CPU    156.15s WALL (     501 calls)
     v_h          :      5.90s CPU      6.10s WALL (     501 calls)
     v_xc         :    146.33s CPU    150.05s WALL (     501 calls)
     newd         :     54.46s CPU     54.97s WALL (     501 calls)
     mix_rho      :     20.56s CPU     21.04s WALL (     500 calls)

     Called by c_bands:
     init_us_2    :     16.70s CPU     16.95s WALL (    5005 calls)
     init_us_2:cp :     16.68s CPU     16.93s WALL (    5005 calls)
     cegterg      :    518.50s CPU    535.26s WALL (    2500 calls)

     Called by sum_band:
     sum_band:wei :      0.52s CPU      0.52s WALL (     500 calls)
     sum_band:loo :    112.96s CPU    116.83s WALL (     500 calls)
     sum_band:buf :      2.90s CPU      2.92s WALL (    2500 calls)
     sum_band:ini :      7.84s CPU      7.91s WALL (    2500 calls)
     sum_band:cal :     13.23s CPU     13.23s WALL (    2500 calls)
     sum_band:bec :      0.12s CPU      0.12s WALL (    2500 calls)
     addusdens    :     65.34s CPU     66.58s WALL (     500 calls)
                                        0.00s GPU  (     500 calls)
     addusd:skk   :      0.27s CPU      0.27s WALL (    1500 calls)
                                        0.00s GPU  (    1500 calls)

     Called by *egterg:
     cdiaghg      :     15.95s CPU     16.22s WALL (    9434 calls)
     cegterg:over :     21.47s CPU     21.55s WALL (    6934 calls)
     cegterg:upda :     15.25s CPU     15.29s WALL (    6934 calls)
     cegterg:last :     18.66s CPU     18.69s WALL (    3411 calls)
     h_psi        :    399.12s CPU    415.02s WALL (    9439 calls)
     s_psi        :     27.29s CPU     27.36s WALL (    9439 calls)
     g_psi        :      0.99s CPU      1.01s WALL (    6934 calls)

     Called by h_psi:
     h_psi:calbec :     38.22s CPU     38.31s WALL (    9439 calls)
     vloc_psi     :    326.41s CPU    342.12s WALL (    9439 calls)
     add_vuspsi   :     28.94s CPU     29.03s WALL (    9439 calls)

     General routines
     calbec       :     51.39s CPU     51.49s WALL (   11939 calls)
     fft          :     54.28s CPU     59.64s WALL (   12523 calls)
     ffts         :      2.55s CPU      2.78s WALL (    2002 calls)
     fftw         :    325.23s CPU    342.65s WALL (  544590 calls)
     interpolate  :      8.29s CPU      8.92s WALL (    1002 calls)
     davcio       :      0.00s CPU      0.05s WALL (      23 calls)

     Parallel routines

     PWSCF        :  17m54.94s CPU  18m29.16s WALL


   This run was terminated on:  22:34:28  28Nov2023            

=------------------------------------------------------------------------------=
   JOB DONE.
=------------------------------------------------------------------------------=
