
     Program PWSCF v.7.2 starts on 29Nov2023 at 20:31:32 
        Git branch: develop
        Last git commit: 9055681be6fc8200e6fffe76ed5fda34c2696339
        Last git commit date: Wed Nov 8 16:29:39 2023 +0000
        Last git commit subject: Merge branch 'calbec_fix' into 'develop'

     This program is part of the open-source Quantum ESPRESSO suite
     for quantum simulation of materials; please cite
         "P. Giannozzi et al., J. Phys.:Condens. Matter 21 395502 (2009);
         "P. Giannozzi et al., J. Phys.:Condens. Matter 29 465901 (2017);
         "P. Giannozzi et al., J. Chem. Phys. 152 154105 (2020);
          URL http://www.quantum-espresso.org", 
     in publications or presentations arising from this work. More details at
     http://www.quantum-espresso.org/quote

     Parallel version (MPI), running on    56 processors

     MPI processes distributed on     1 nodes
     487308 MiB available memory on the printing compute node when the environment starts

     Reading input from aiida.in

     Current dimensions of program PWSCF are:
     Max number of different atomic species (ntypx) = 10
     Max number of k-points (npk) =  40000
     Max angular momentum in pseudopotentials (lmaxx) =  4
     Message from routine setup:
     using ibrav=0 with symmetry is DISCOURAGED, use correct ibrav instead

     K-points division:     npool     =       7
     R & G space division:  proc/nbgrp/npool/nimage =       8
     Subspace diagonalization in iterative solution of the eigenvalue problem:
     a serial algorithm will be used


     Parallelization info
     --------------------
     sticks:   dense  smooth     PW     G-vecs:    dense   smooth      PW
     Min         636     316     87                29890    10562    1546
     Max         637     321     88                29892    10563    1549
     Sum        5089    2539    703               239129    84499   12387

     Using Slab Decomposition



     bravais-lattice index     =            0
     lattice parameter (alat)  =      14.3111  a.u.
     unit-cell volume          =    2072.5500 (a.u.)^3
     number of atoms/cell      =            3
     number of atomic types    =            3
     number of electrons       =        30.00
     number of Kohn-Sham states=           19
     kinetic-energy cutoff     =      45.0000  Ry
     charge density cutoff     =     360.0000  Ry
     scf convergence threshold =      6.0E-10
     mixing beta               =       0.4000
     number of iterations used =            8  plain     mixing
     Exchange-correlation= SLA  PW   PSX  PSC
                           (   1   4  10   8   0   0   0)

     celldm(1)=  14.311111  celldm(2)=   0.000000  celldm(3)=   0.000000
     celldm(4)=   0.000000  celldm(5)=   0.000000  celldm(6)=   0.000000

     crystal axes: (cart. coord. in units of alat)
               a(1) = (   0.000000   0.707107   0.707107 )  
               a(2) = (   0.707107   0.000000   0.707107 )  
               a(3) = (   0.707107   0.707107   0.000000 )  

     reciprocal axes: (cart. coord. in units 2 pi/alat)
               b(1) = ( -0.707107  0.707107  0.707107 )  
               b(2) = (  0.707107 -0.707107  0.707107 )  
               b(3) = (  0.707107  0.707107 -0.707107 )  


     PseudoPot. # 1 for Co read from file:
     ./pseudo/co_pbesol_v1.2.uspp.F.UPF
     MD5 check sum: 3b4cd4e7cc7df4da9fdede0fd33e2193
     Pseudo is Ultrasoft + core correction, Zval = 17.0
     Generated by new atomic code, or converted to UPF format
     Using radial grid of  863 points,  6 beta functions with: 
                l(1) =   0
                l(2) =   0
                l(3) =   1
                l(4) =   1
                l(5) =   2
                l(6) =   2
     Q(r) pseudized with  8 coefficients,  rinner =    1.200   1.200   1.200
                                                       1.200   1.200

     PseudoPot. # 2 for I  read from file:
     ./pseudo/I.pbesol-n-kjpaw_psl.0.2.UPF
     MD5 check sum: cecf1a22a184a0b1ae701638a037a48d
     Pseudo is Projector augmented-wave + core cor, Zval =  7.0
     Generated using "atomic" code by A. Dal Corso  v.6.0 svn rev. 13079
     Shape of augmentation charge: PSQ
     Using radial grid of 1247 points,  4 beta functions with: 
                l(1) =   0
                l(2) =   0
                l(3) =   1
                l(4) =   1
     Q(r) pseudized with 0 coefficients 


     PseudoPot. # 3 for S  read from file:
     ./pseudo/s_pbesol_v1.4.uspp.F.UPF
     MD5 check sum: 0ccfa86ec6eb59065d10aaae963ef2a7
     Pseudo is Ultrasoft + core correction, Zval =  6.0
     Generated by new atomic code, or converted to UPF format
     Using radial grid of  907 points,  6 beta functions with: 
                l(1) =   0
                l(2) =   0
                l(3) =   1
                l(4) =   1
                l(5) =   2
                l(6) =   2
     Q(r) pseudized with  8 coefficients,  rinner =    1.300   1.300   1.300
                                                       1.300   1.300

     atomic species   valence    mass     pseudopotential
     Co               17.00    58.93319     Co( 1.00)
     I                 7.00   126.90447     I ( 1.00)
     S                 6.00    32.06500     S ( 1.00)

     Starting magnetic structure 
     atomic species   magnetization
     Co              0.294
     I               0.100
     S               0.100

     24 Sym. Ops. (no inversion) found


                                    s                        frac. trans.

      isym =  1     identity                                     

 cryst.   s( 1) = (     1          0          0      )
                  (     0          1          0      )
                  (     0          0          1      )

 cart.    s( 1) = (  1.0000000 -0.0000000  0.0000000 )
                  ( -0.0000000  1.0000000  0.0000000 )
                  ( -0.0000000  0.0000000  1.0000000 )


      isym =  2     180 deg rotation - cart. axis [0,0,1]        

 cryst.   s( 2) = (     0          1         -1      )
                  (     1          0         -1      )
                  (     0          0         -1      )

 cart.    s( 2) = ( -1.0000000  0.0000000  0.0000000 )
                  (  0.0000000 -1.0000000  0.0000000 )
                  (  0.0000000 -0.0000000  1.0000000 )


      isym =  3     180 deg rotation - cart. axis [0,1,0]        

 cryst.   s( 3) = (     0         -1          1      )
                  (     0         -1          0      )
                  (     1         -1          0      )

 cart.    s( 3) = ( -1.0000000 -0.0000000 -0.0000000 )
                  (  0.0000000  1.0000000 -0.0000000 )
                  (  0.0000000  0.0000000 -1.0000000 )


      isym =  4     180 deg rotation - cart. axis [1,0,0]        

 cryst.   s( 4) = (    -1          0          0      )
                  (    -1          0          1      )
                  (    -1          1          0      )

 cart.    s( 4) = (  1.0000000  0.0000000 -0.0000000 )
                  ( -0.0000000 -1.0000000 -0.0000000 )
                  ( -0.0000000 -0.0000000 -1.0000000 )


      isym =  5     120 deg rotation - cart. axis [-1,-1,-1]     

 cryst.   s( 5) = (     0          0          1      )
                  (     1          0          0      )
                  (     0          1          0      )

 cart.    s( 5) = (  0.0000000  1.0000000 -0.0000000 )
                  (  0.0000000 -0.0000000  1.0000000 )
                  (  1.0000000 -0.0000000  0.0000000 )


      isym =  6     120 deg rotation - cart. axis [-1,1,1]       

 cryst.   s( 6) = (     1         -1          0      )
                  (     0         -1          1      )
                  (     0         -1          0      )

 cart.    s( 6) = ( -0.0000000 -1.0000000 -0.0000000 )
                  ( -0.0000000  0.0000000  1.0000000 )
                  ( -1.0000000  0.0000000  0.0000000 )


      isym =  7     120 deg rotation - cart. axis [1,1,-1]       

 cryst.   s( 7) = (    -1          1          0      )
                  (    -1          0          0      )
                  (    -1          0          1      )

 cart.    s( 7) = ( -0.0000000  1.0000000  0.0000000 )
                  ( -0.0000000 -0.0000000 -1.0000000 )
                  ( -1.0000000 -0.0000000 -0.0000000 )


      isym =  8     120 deg rotation - cart. axis [1,-1,1]       

 cryst.   s( 8) = (     0          0         -1      )
                  (     0          1         -1      )
                  (     1          0         -1      )

 cart.    s( 8) = (  0.0000000 -1.0000000  0.0000000 )
                  (  0.0000000  0.0000000 -1.0000000 )
                  (  1.0000000  0.0000000 -0.0000000 )


      isym =  9     120 deg rotation - cart. axis [1,1,1]        

 cryst.   s( 9) = (     0          1          0      )
                  (     0          0          1      )
                  (     1          0          0      )

 cart.    s( 9) = ( -0.0000000  0.0000000  1.0000000 )
                  (  1.0000000  0.0000000 -0.0000000 )
                  (  0.0000000  1.0000000 -0.0000000 )


      isym = 10     120 deg rotation - cart. axis [-1,1,-1]      

 cryst.   s(10) = (    -1          0          1      )
                  (    -1          1          0      )
                  (    -1          0          0      )

 cart.    s(10) = (  0.0000000 -0.0000000  1.0000000 )
                  ( -1.0000000 -0.0000000 -0.0000000 )
                  ( -0.0000000 -1.0000000 -0.0000000 )


      isym = 11     120 deg rotation - cart. axis [1,-1,-1]      

 cryst.   s(11) = (     1          0         -1      )
                  (     0          0         -1      )
                  (     0          1         -1      )

 cart.    s(11) = (  0.0000000  0.0000000 -1.0000000 )
                  ( -1.0000000  0.0000000  0.0000000 )
                  ( -0.0000000  1.0000000  0.0000000 )


      isym = 12     120 deg rotation - cart. axis [-1,-1,1]      

 cryst.   s(12) = (     0         -1          0      )
                  (     1         -1          0      )
                  (     0         -1          1      )

 cart.    s(12) = ( -0.0000000 -0.0000000 -1.0000000 )
                  (  1.0000000 -0.0000000  0.0000000 )
                  (  0.0000000 -1.0000000  0.0000000 )


      isym = 13     inv. 180 deg rotation - cart. axis [1,1,0]   

 cryst.   s(13) = (     1          0         -1      )
                  (     0          1         -1      )
                  (     0          0         -1      )

 cart.    s(13) = (  0.0000000 -1.0000000  0.0000000 )
                  ( -1.0000000  0.0000000  0.0000000 )
                  ( -0.0000000  0.0000000  1.0000000 )


      isym = 14     inv. 180 deg rotation - cart. axis [1,-1,0]  

 cryst.   s(14) = (     0          1          0      )
                  (     1          0          0      )
                  (     0          0          1      )

 cart.    s(14) = ( -0.0000000  1.0000000  0.0000000 )
                  (  1.0000000 -0.0000000  0.0000000 )
                  (  0.0000000 -0.0000000  1.0000000 )


      isym = 15     inv.  90 deg rotation - cart. axis [0,0,-1]  

 cryst.   s(15) = (     0         -1          0      )
                  (     0         -1          1      )
                  (     1         -1          0      )

 cart.    s(15) = ( -0.0000000 -1.0000000 -0.0000000 )
                  (  1.0000000  0.0000000 -0.0000000 )
                  (  0.0000000  0.0000000 -1.0000000 )


      isym = 16     inv.  90 deg rotation - cart. axis [0,0,1]   

 cryst.   s(16) = (    -1          0          1      )
                  (    -1          0          0      )
                  (    -1          1          0      )

 cart.    s(16) = (  0.0000000  1.0000000 -0.0000000 )
                  ( -1.0000000 -0.0000000 -0.0000000 )
                  ( -0.0000000 -0.0000000 -1.0000000 )


      isym = 17     inv. 180 deg rotation - cart. axis [1,0,1]   

 cryst.   s(17) = (     1         -1          0      )
                  (     0         -1          0      )
                  (     0         -1          1      )

 cart.    s(17) = ( -0.0000000 -0.0000000 -1.0000000 )
                  ( -0.0000000  1.0000000  0.0000000 )
                  ( -1.0000000  0.0000000  0.0000000 )


      isym = 18     inv. 180 deg rotation - cart. axis [-1,0,1]  

 cryst.   s(18) = (     0          0          1      )
                  (     0          1          0      )
                  (     1          0          0      )

 cart.    s(18) = (  0.0000000 -0.0000000  1.0000000 )
                  (  0.0000000  1.0000000 -0.0000000 )
                  (  1.0000000  0.0000000 -0.0000000 )


      isym = 19     inv.  90 deg rotation - cart. axis [0,1,0]   

 cryst.   s(19) = (     0          0         -1      )
                  (     1          0         -1      )
                  (     0          1         -1      )

 cart.    s(19) = (  0.0000000  0.0000000 -1.0000000 )
                  (  0.0000000 -1.0000000  0.0000000 )
                  (  1.0000000 -0.0000000  0.0000000 )


      isym = 20     inv.  90 deg rotation - cart. axis [0,-1,0]  

 cryst.   s(20) = (    -1          1          0      )
                  (    -1          0          1      )
                  (    -1          0          0      )

 cart.    s(20) = ( -0.0000000  0.0000000  1.0000000 )
                  ( -0.0000000 -1.0000000 -0.0000000 )
                  ( -1.0000000 -0.0000000 -0.0000000 )


      isym = 21     inv. 180 deg rotation - cart. axis [0,1,1]   

 cryst.   s(21) = (    -1          0          0      )
                  (    -1          1          0      )
                  (    -1          0          1      )

 cart.    s(21) = (  1.0000000 -0.0000000  0.0000000 )
                  ( -0.0000000 -0.0000000 -1.0000000 )
                  ( -0.0000000 -1.0000000 -0.0000000 )


      isym = 22     inv. 180 deg rotation - cart. axis [0,1,-1]  

 cryst.   s(22) = (     1          0          0      )
                  (     0          0          1      )
                  (     0          1          0      )

 cart.    s(22) = (  1.0000000  0.0000000 -0.0000000 )
                  ( -0.0000000  0.0000000  1.0000000 )
                  ( -0.0000000  1.0000000  0.0000000 )


      isym = 23     inv.  90 deg rotation - cart. axis [-1,0,0]  

 cryst.   s(23) = (     0          1         -1      )
                  (     0          0         -1      )
                  (     1          0         -1      )

 cart.    s(23) = ( -1.0000000  0.0000000  0.0000000 )
                  (  0.0000000  0.0000000 -1.0000000 )
                  (  0.0000000  1.0000000 -0.0000000 )


      isym = 24     inv.  90 deg rotation - cart. axis [1,0,0]   

 cryst.   s(24) = (     0         -1          1      )
                  (     1         -1          0      )
                  (     0         -1          0      )

 cart.    s(24) = ( -1.0000000 -0.0000000 -0.0000000 )
                  (  0.0000000 -0.0000000  1.0000000 )
                  (  0.0000000 -1.0000000  0.0000000 )


   Cartesian axes

     site n.     atom                  positions (alat units)
         1        Co     tau(   1) = (   0.0000000   0.0000000   0.0000000  )
         2        S      tau(   2) = (   0.3535534   0.3535534   1.0606602  )
         3        I      tau(   3) = (   0.3535534   0.3535534   0.3535534  )

   Crystallographic axes

     site n.     atom                  positions (cryst. coord.)
         1        Co     tau(   1) = (  0.0000000  0.0000000  0.0000000  )
         2        S      tau(   2) = (  0.7500000  0.7500000 -0.2500000  )
         3        I      tau(   3) = (  0.2500000  0.2500000  0.2500000  )

     number of k points=    20  Marzari-Vanderbilt smearing, width (Ry)=  0.0200
                       cart. coord. in units 2pi/alat
        k(    1) = (   0.0000000   0.0000000   0.0000000), wk =   0.0029155
        k(    2) = (   0.1010153   0.1010153  -0.1010153), wk =   0.0233236
        k(    3) = (   0.2020305   0.2020305  -0.2020305), wk =   0.0233236
        k(    4) = (   0.3030458   0.3030458  -0.3030458), wk =   0.0233236
        k(    5) = (   0.2020305  -0.0000000   0.0000000), wk =   0.0174927
        k(    6) = (   0.3030458   0.1010153  -0.1010153), wk =   0.0699708
        k(    7) = (   0.4040610   0.2020305  -0.2020305), wk =   0.0699708
        k(    8) = (  -0.2020305  -0.4040610   0.4040610), wk =   0.0699708
        k(    9) = (  -0.1010153  -0.3030458   0.3030458), wk =   0.0699708
        k(   10) = (  -0.0000000  -0.2020305   0.2020305), wk =   0.0349854
        k(   11) = (   0.4040610  -0.0000000   0.0000000), wk =   0.0174927
        k(   12) = (   0.5050763   0.1010153  -0.1010153), wk =   0.0699708
        k(   13) = (  -0.1010153  -0.5050763   0.5050763), wk =   0.0699708
        k(   14) = (   0.0000000  -0.4040610   0.4040610), wk =   0.0349854
        k(   15) = (   0.6060915  -0.0000000   0.0000000), wk =   0.0174927
        k(   16) = (  -0.0000000  -0.6060915   0.6060915), wk =   0.0349854
        k(   17) = (   0.4040610   0.2020305   0.0000000), wk =   0.0699708
        k(   18) = (  -0.2020305  -0.4040610   0.6060915), wk =   0.1399417
        k(   19) = (  -0.1010153  -0.5050763   0.7071068), wk =   0.0699708
        k(   20) = (   0.0000000  -0.4040610   0.6060915), wk =   0.0699708

                       cryst. coord.
        k(    1) = (   0.0000000   0.0000000   0.0000000), wk =   0.0029155
        k(    2) = (   0.0000000   0.0000000   0.1428571), wk =   0.0233236
        k(    3) = (   0.0000000   0.0000000   0.2857143), wk =   0.0233236
        k(    4) = (  -0.0000000  -0.0000000   0.4285714), wk =   0.0233236
        k(    5) = (  -0.0000000   0.1428571   0.1428571), wk =   0.0174927
        k(    6) = (  -0.0000000   0.1428571   0.2857143), wk =   0.0699708
        k(    7) = (  -0.0000000   0.1428571   0.4285714), wk =   0.0699708
        k(    8) = (  -0.0000000   0.1428571  -0.4285714), wk =   0.0699708
        k(    9) = (   0.0000000   0.1428571  -0.2857143), wk =   0.0699708
        k(   10) = (  -0.0000000   0.1428571  -0.1428571), wk =   0.0349854
        k(   11) = (  -0.0000000   0.2857143   0.2857143), wk =   0.0174927
        k(   12) = (  -0.0000000   0.2857143   0.4285714), wk =   0.0699708
        k(   13) = (  -0.0000000   0.2857143  -0.4285714), wk =   0.0699708
        k(   14) = (  -0.0000000   0.2857143  -0.2857143), wk =   0.0349854
        k(   15) = (   0.0000000   0.4285714   0.4285714), wk =   0.0174927
        k(   16) = (   0.0000000   0.4285714  -0.4285714), wk =   0.0349854
        k(   17) = (   0.1428571   0.2857143   0.4285714), wk =   0.0699708
        k(   18) = (   0.1428571   0.2857143  -0.4285714), wk =   0.1399417
        k(   19) = (   0.1428571   0.4285714  -0.4285714), wk =   0.0699708
        k(   20) = (   0.1428571   0.4285714  -0.2857143), wk =   0.0699708

     Dense  grid:   239129 G-vectors     FFT dimensions: (  90,  90,  90)

     Smooth grid:    84499 G-vectors     FFT dimensions: (  64,  64,  64)

     Dynamical RAM for                 wfc:       0.38 MB

     Dynamical RAM for     wfc (w. buffer):       2.68 MB

     Dynamical RAM for           str. fact:       1.37 MB

     Dynamical RAM for           local pot:       0.00 MB

     Dynamical RAM for          nlocal pot:       0.89 MB

     Dynamical RAM for                qrad:       4.57 MB

     Dynamical RAM for          rho,v,vnew:       7.19 MB

     Dynamical RAM for               rhoin:       2.40 MB

     Dynamical RAM for            rho*nmix:      14.60 MB

     Dynamical RAM for           G-vectors:       1.79 MB

     Dynamical RAM for          h,s,v(r/c):       0.07 MB

     Dynamical RAM for          <psi|beta>:       0.01 MB

     Dynamical RAM for                 psi:       0.77 MB

     Dynamical RAM for                hpsi:       0.77 MB

     Dynamical RAM for                spsi:       0.77 MB

     Dynamical RAM for      wfcinit/wfcrot:       0.86 MB

     Dynamical RAM for           addusdens:      13.03 MB

     Dynamical RAM for          addusforce:      12.65 MB

     Dynamical RAM for         addusstress:      13.58 MB

     Estimated static dynamical RAM per process >      27.15 MB

     Estimated max dynamical RAM per process >      55.33 MB

     Estimated total dynamical RAM >       2.34 GB

     Check: negative core charge=   -0.000001
     Generating pointlists ...
     new r_m :   0.2526 (alat units)  3.6150 (a.u.) for type    1
     new r_m :   0.2526 (alat units)  3.6150 (a.u.) for type    2
     new r_m :   0.2526 (alat units)  3.6150 (a.u.) for type    3

     Initial potential from superposition of free atoms

     starting charge      28.9999, renormalised to      30.0000
     Starting wfcs are   21 randomized atomic wfcs
     Checking if some PAW data can be deallocated... 
       PAW data deallocated on   38 nodes for type:  2

     total cpu time spent up to now is        1.7 secs

     per-process dynamical memory:    50.9 Mb

     Self-consistent Calculation

     iteration #  1     ecut=    45.00 Ry     beta= 0.40
     Davidson diagonalization with overlap

---- Real-time Memory Report at c_bands before calling an iterative solver
            82 MiB given to the printing process from OS
            49 MiB allocation reported by mallinfo(arena+hblkhd)
        485059 MiB available memory on the node where the printing process lives
------------------
     ethr =  1.00E-02,  avg # of iterations =  3.4

     total cpu time spent up to now is        2.5 secs

     total energy              =    -688.90118822 Ry
     estimated scf accuracy    <      11.31264160 Ry

     total magnetization       =     4.00 Bohr mag/cell
     absolute magnetization    =     4.15 Bohr mag/cell

     iteration #  2     ecut=    45.00 Ry     beta= 0.40
     Davidson diagonalization with overlap

---- Real-time Memory Report at c_bands before calling an iterative solver
            96 MiB given to the printing process from OS
            62 MiB allocation reported by mallinfo(arena+hblkhd)
        484523 MiB available memory on the node where the printing process lives
------------------
     ethr =  1.00E-02,  avg # of iterations =  5.6
     Minimization algorithm failed to find Fermi energy: reverting to bisection
     Possible cause: smearing is larger than the electronic band-gap.

     total cpu time spent up to now is        3.3 secs

     total energy              =    -692.17325900 Ry
     estimated scf accuracy    <      50.62977487 Ry

     total magnetization       =     0.00 Bohr mag/cell
     absolute magnetization    =     0.79 Bohr mag/cell

     iteration #  3     ecut=    45.00 Ry     beta= 0.40
     Davidson diagonalization with overlap

---- Real-time Memory Report at c_bands before calling an iterative solver
            98 MiB given to the printing process from OS
            63 MiB allocation reported by mallinfo(arena+hblkhd)
        484500 MiB available memory on the node where the printing process lives
------------------
     ethr =  1.00E-02,  avg # of iterations =  2.0

     negative rho (up, down):  2.465E-08 0.000E+00

     total cpu time spent up to now is        4.0 secs

     total energy              =    -694.30934491 Ry
     estimated scf accuracy    <      14.90439546 Ry

     total magnetization       =     0.01 Bohr mag/cell
     absolute magnetization    =     0.38 Bohr mag/cell

     iteration #  4     ecut=    45.00 Ry     beta= 0.40
     Davidson diagonalization with overlap

---- Real-time Memory Report at c_bands before calling an iterative solver
            99 MiB given to the printing process from OS
            64 MiB allocation reported by mallinfo(arena+hblkhd)
        484481 MiB available memory on the node where the printing process lives
------------------
     ethr =  1.00E-02,  avg # of iterations =  3.6

     negative rho (up, down):  3.128E-08 2.552E-09

     total cpu time spent up to now is        4.7 secs

     total energy              =    -693.96861885 Ry
     estimated scf accuracy    <       6.76660294 Ry

     total magnetization       =     1.63 Bohr mag/cell
     absolute magnetization    =     1.65 Bohr mag/cell

     iteration #  5     ecut=    45.00 Ry     beta= 0.40
     Davidson diagonalization with overlap

---- Real-time Memory Report at c_bands before calling an iterative solver
            99 MiB given to the printing process from OS
            64 MiB allocation reported by mallinfo(arena+hblkhd)
        484462 MiB available memory on the node where the printing process lives
------------------
     ethr =  1.00E-02,  avg # of iterations =  3.0

     total cpu time spent up to now is        5.4 secs

     total energy              =    -694.25464432 Ry
     estimated scf accuracy    <       2.51390776 Ry

     total magnetization       =     4.64 Bohr mag/cell
     absolute magnetization    =     5.17 Bohr mag/cell

     iteration #  6     ecut=    45.00 Ry     beta= 0.40
     Davidson diagonalization with overlap

---- Real-time Memory Report at c_bands before calling an iterative solver
           100 MiB given to the printing process from OS
            65 MiB allocation reported by mallinfo(arena+hblkhd)
        484446 MiB available memory on the node where the printing process lives
------------------
     ethr =  8.38E-03,  avg # of iterations =  1.9

     total cpu time spent up to now is        6.0 secs

     total energy              =    -694.45057082 Ry
     estimated scf accuracy    <       5.59558289 Ry

     total magnetization       =     1.07 Bohr mag/cell
     absolute magnetization    =     1.10 Bohr mag/cell

     iteration #  7     ecut=    45.00 Ry     beta= 0.40
     Davidson diagonalization with overlap

---- Real-time Memory Report at c_bands before calling an iterative solver
           101 MiB given to the printing process from OS
            66 MiB allocation reported by mallinfo(arena+hblkhd)
        484432 MiB available memory on the node where the printing process lives
------------------
     ethr =  8.38E-03,  avg # of iterations =  1.6

     total cpu time spent up to now is        6.7 secs

     total energy              =    -694.41859515 Ry
     estimated scf accuracy    <       2.11567689 Ry

     total magnetization       =     2.10 Bohr mag/cell
     absolute magnetization    =     2.19 Bohr mag/cell

     iteration #  8     ecut=    45.00 Ry     beta= 0.40
     Davidson diagonalization with overlap

---- Real-time Memory Report at c_bands before calling an iterative solver
           102 MiB given to the printing process from OS
            66 MiB allocation reported by mallinfo(arena+hblkhd)
        484420 MiB available memory on the node where the printing process lives
------------------
     ethr =  7.05E-03,  avg # of iterations =  1.4

     total cpu time spent up to now is        7.3 secs

     total energy              =    -694.47267333 Ry
     estimated scf accuracy    <       3.07760916 Ry

     total magnetization       =     0.74 Bohr mag/cell
     absolute magnetization    =     1.50 Bohr mag/cell

     iteration #  9     ecut=    45.00 Ry     beta= 0.40
     Davidson diagonalization with overlap

---- Real-time Memory Report at c_bands before calling an iterative solver
           103 MiB given to the printing process from OS
            67 MiB allocation reported by mallinfo(arena+hblkhd)
        484402 MiB available memory on the node where the printing process lives
------------------
     ethr =  7.05E-03,  avg # of iterations =  1.0

     total cpu time spent up to now is        7.9 secs

     total energy              =    -694.46905127 Ry
     estimated scf accuracy    <       2.40135764 Ry

     total magnetization       =     0.90 Bohr mag/cell
     absolute magnetization    =     1.79 Bohr mag/cell

     iteration # 10     ecut=    45.00 Ry     beta= 0.40
     Davidson diagonalization with overlap

---- Real-time Memory Report at c_bands before calling an iterative solver
           104 MiB given to the printing process from OS
            68 MiB allocation reported by mallinfo(arena+hblkhd)
        484389 MiB available memory on the node where the printing process lives
------------------
     ethr =  7.05E-03,  avg # of iterations =  1.0

     total cpu time spent up to now is        8.6 secs

     total energy              =    -694.33516913 Ry
     estimated scf accuracy    <       1.81872523 Ry

     total magnetization       =     0.99 Bohr mag/cell
     absolute magnetization    =     2.10 Bohr mag/cell

     iteration # 11     ecut=    45.00 Ry     beta= 0.40
     Davidson diagonalization with overlap

---- Real-time Memory Report at c_bands before calling an iterative solver
           104 MiB given to the printing process from OS
            68 MiB allocation reported by mallinfo(arena+hblkhd)
        484383 MiB available memory on the node where the printing process lives
------------------
     ethr =  6.06E-03,  avg # of iterations =  1.0

     total cpu time spent up to now is        9.2 secs

     total energy              =    -694.69170430 Ry
     estimated scf accuracy    <       5.51507412 Ry

     total magnetization       =     5.99 Bohr mag/cell
     absolute magnetization    =     5.99 Bohr mag/cell

     iteration # 12     ecut=    45.00 Ry     beta= 0.40
     Davidson diagonalization with overlap

---- Real-time Memory Report at c_bands before calling an iterative solver
           104 MiB given to the printing process from OS
            68 MiB allocation reported by mallinfo(arena+hblkhd)
        484377 MiB available memory on the node where the printing process lives
------------------
     ethr =  6.06E-03,  avg # of iterations =  1.0

     total cpu time spent up to now is        9.8 secs

     total energy              =    -694.62662886 Ry
     estimated scf accuracy    <       5.61357706 Ry

     total magnetization       =     5.99 Bohr mag/cell
     absolute magnetization    =     5.99 Bohr mag/cell

     iteration # 13     ecut=    45.00 Ry     beta= 0.40
     Davidson diagonalization with overlap

---- Real-time Memory Report at c_bands before calling an iterative solver
           104 MiB given to the printing process from OS
            68 MiB allocation reported by mallinfo(arena+hblkhd)
        484369 MiB available memory on the node where the printing process lives
------------------
     ethr =  6.06E-03,  avg # of iterations =  1.0

     total cpu time spent up to now is       10.4 secs

     total energy              =    -694.71404690 Ry
     estimated scf accuracy    <       5.37706371 Ry

     total magnetization       =     5.92 Bohr mag/cell
     absolute magnetization    =     5.92 Bohr mag/cell

     iteration # 14     ecut=    45.00 Ry     beta= 0.40
     Davidson diagonalization with overlap

---- Real-time Memory Report at c_bands before calling an iterative solver
           104 MiB given to the printing process from OS
            68 MiB allocation reported by mallinfo(arena+hblkhd)
        484364 MiB available memory on the node where the printing process lives
------------------
     ethr =  6.06E-03,  avg # of iterations =  1.0
     Minimization algorithm failed to find Fermi energy: reverting to bisection
     Possible cause: smearing is larger than the electronic band-gap.

     total cpu time spent up to now is       11.0 secs

     total energy              =    -694.71848487 Ry
     estimated scf accuracy    <       5.75756234 Ry

     total magnetization       =     6.00 Bohr mag/cell
     absolute magnetization    =     6.01 Bohr mag/cell

     iteration # 15     ecut=    45.00 Ry     beta= 0.40
     Davidson diagonalization with overlap

---- Real-time Memory Report at c_bands before calling an iterative solver
           104 MiB given to the printing process from OS
            68 MiB allocation reported by mallinfo(arena+hblkhd)
        484359 MiB available memory on the node where the printing process lives
------------------
     ethr =  6.06E-03,  avg # of iterations =  1.0
     Minimization algorithm failed to find Fermi energy: reverting to bisection
     Possible cause: smearing is larger than the electronic band-gap.

     total cpu time spent up to now is       11.6 secs

     total energy              =    -694.66413582 Ry
     estimated scf accuracy    <       5.77989945 Ry

     total magnetization       =     6.00 Bohr mag/cell
     absolute magnetization    =     6.01 Bohr mag/cell

     iteration # 16     ecut=    45.00 Ry     beta= 0.40
     Davidson diagonalization with overlap

---- Real-time Memory Report at c_bands before calling an iterative solver
           104 MiB given to the printing process from OS
            68 MiB allocation reported by mallinfo(arena+hblkhd)
        484354 MiB available memory on the node where the printing process lives
------------------
     ethr =  6.06E-03,  avg # of iterations =  1.0
     Minimization algorithm failed to find Fermi energy: reverting to bisection
     Possible cause: smearing is larger than the electronic band-gap.

     negative rho (up, down):  2.270E-06 0.000E+00

     total cpu time spent up to now is       12.2 secs

     total energy              =    -693.30405093 Ry
     estimated scf accuracy    <       5.65636638 Ry

     total magnetization       =     5.98 Bohr mag/cell
     absolute magnetization    =     5.99 Bohr mag/cell

     iteration # 17     ecut=    45.00 Ry     beta= 0.40
     Davidson diagonalization with overlap

---- Real-time Memory Report at c_bands before calling an iterative solver
           104 MiB given to the printing process from OS
            68 MiB allocation reported by mallinfo(arena+hblkhd)
        484348 MiB available memory on the node where the printing process lives
------------------
     ethr =  6.06E-03,  avg # of iterations =  2.0

     total cpu time spent up to now is       12.9 secs

     total energy              =    -694.64863165 Ry
     estimated scf accuracy    <      10.28589977 Ry

     total magnetization       =    -2.20 Bohr mag/cell
     absolute magnetization    =     3.33 Bohr mag/cell

     iteration # 18     ecut=    45.00 Ry     beta= 0.40
     Davidson diagonalization with overlap

---- Real-time Memory Report at c_bands before calling an iterative solver
           104 MiB given to the printing process from OS
            68 MiB allocation reported by mallinfo(arena+hblkhd)
        484342 MiB available memory on the node where the printing process lives
------------------
     ethr =  6.06E-03,  avg # of iterations =  1.0

     total cpu time spent up to now is       13.5 secs

     total energy              =    -694.88696544 Ry
     estimated scf accuracy    <       8.14495720 Ry

     total magnetization       =    -0.08 Bohr mag/cell
     absolute magnetization    =     1.74 Bohr mag/cell

     iteration # 19     ecut=    45.00 Ry     beta= 0.40
     Davidson diagonalization with overlap

---- Real-time Memory Report at c_bands before calling an iterative solver
           104 MiB given to the printing process from OS
            68 MiB allocation reported by mallinfo(arena+hblkhd)
        484335 MiB available memory on the node where the printing process lives
------------------
     ethr =  6.06E-03,  avg # of iterations =  1.0

     total cpu time spent up to now is       14.1 secs

     total energy              =    -694.87405845 Ry
     estimated scf accuracy    <       8.48799639 Ry

     total magnetization       =    -0.00 Bohr mag/cell
     absolute magnetization    =     2.02 Bohr mag/cell

     iteration # 20     ecut=    45.00 Ry     beta= 0.40
     Davidson diagonalization with overlap

---- Real-time Memory Report at c_bands before calling an iterative solver
           105 MiB given to the printing process from OS
            68 MiB allocation reported by mallinfo(arena+hblkhd)
        484333 MiB available memory on the node where the printing process lives
------------------
     ethr =  6.06E-03,  avg # of iterations =  1.0

     total cpu time spent up to now is       14.7 secs

     total energy              =    -694.91155143 Ry
     estimated scf accuracy    <       8.29549806 Ry

     total magnetization       =    -0.05 Bohr mag/cell
     absolute magnetization    =     2.14 Bohr mag/cell

     iteration # 21     ecut=    45.00 Ry     beta= 0.40
     Davidson diagonalization with overlap

---- Real-time Memory Report at c_bands before calling an iterative solver
           105 MiB given to the printing process from OS
            68 MiB allocation reported by mallinfo(arena+hblkhd)
        484332 MiB available memory on the node where the printing process lives
------------------
     ethr =  6.06E-03,  avg # of iterations =  1.0

     total cpu time spent up to now is       15.3 secs

     total energy              =    -694.72502216 Ry
     estimated scf accuracy    <       8.76385341 Ry

     total magnetization       =     0.11 Bohr mag/cell
     absolute magnetization    =     1.95 Bohr mag/cell

     iteration # 22     ecut=    45.00 Ry     beta= 0.40
     Davidson diagonalization with overlap

---- Real-time Memory Report at c_bands before calling an iterative solver
           105 MiB given to the printing process from OS
            68 MiB allocation reported by mallinfo(arena+hblkhd)
        484326 MiB available memory on the node where the printing process lives
------------------
     ethr =  6.06E-03,  avg # of iterations =  1.0

     total cpu time spent up to now is       15.9 secs

     total energy              =    -694.65035798 Ry
     estimated scf accuracy    <       7.22326457 Ry

     total magnetization       =    -0.25 Bohr mag/cell
     absolute magnetization    =     2.49 Bohr mag/cell

     iteration # 23     ecut=    45.00 Ry     beta= 0.40
     Davidson diagonalization with overlap

---- Real-time Memory Report at c_bands before calling an iterative solver
           105 MiB given to the printing process from OS
            68 MiB allocation reported by mallinfo(arena+hblkhd)
        484324 MiB available memory on the node where the printing process lives
------------------
     ethr =  6.06E-03,  avg # of iterations =  1.0

     negative rho (up, down):  2.211E-05 0.000E+00

     total cpu time spent up to now is       16.5 secs

     total energy              =    -694.68963469 Ry
     estimated scf accuracy    <       5.76439698 Ry

     total magnetization       =    -1.39 Bohr mag/cell
     absolute magnetization    =     4.17 Bohr mag/cell

     iteration # 24     ecut=    45.00 Ry     beta= 0.40
     Davidson diagonalization with overlap

---- Real-time Memory Report at c_bands before calling an iterative solver
           105 MiB given to the printing process from OS
            68 MiB allocation reported by mallinfo(arena+hblkhd)
        484321 MiB available memory on the node where the printing process lives
------------------
     ethr =  6.06E-03,  avg # of iterations =  1.0

     negative rho (up, down):  7.595E-05 0.000E+00

     total cpu time spent up to now is       17.1 secs

     total energy              =    -694.75767566 Ry
     estimated scf accuracy    <       5.82564525 Ry

     total magnetization       =    -0.48 Bohr mag/cell
     absolute magnetization    =     5.12 Bohr mag/cell

     iteration # 25     ecut=    45.00 Ry     beta= 0.40
     Davidson diagonalization with overlap

---- Real-time Memory Report at c_bands before calling an iterative solver
           105 MiB given to the printing process from OS
            68 MiB allocation reported by mallinfo(arena+hblkhd)
        484319 MiB available memory on the node where the printing process lives
------------------
     ethr =  6.06E-03,  avg # of iterations =  1.0

     negative rho (up, down):  0.000E+00 3.799E-01

     total cpu time spent up to now is       17.7 secs

     total energy              =    -692.59966191 Ry
     estimated scf accuracy    <       6.46412585 Ry

     total magnetization       =     0.15 Bohr mag/cell
     absolute magnetization    =     4.83 Bohr mag/cell

     iteration # 26     ecut=    45.00 Ry     beta= 0.40
     Davidson diagonalization with overlap

---- Real-time Memory Report at c_bands before calling an iterative solver
           105 MiB given to the printing process from OS
            68 MiB allocation reported by mallinfo(arena+hblkhd)
        484316 MiB available memory on the node where the printing process lives
------------------
     ethr =  6.06E-03,  avg # of iterations =  8.2

     negative rho (up, down):  0.000E+00 2.928E-01

     total cpu time spent up to now is       18.6 secs

     total energy              =    -695.82242504 Ry
     estimated scf accuracy    <      42.12798910 Ry

     total magnetization       =    -1.12 Bohr mag/cell
     absolute magnetization    =     1.29 Bohr mag/cell

     iteration # 27     ecut=    45.00 Ry     beta= 0.40
     Davidson diagonalization with overlap

---- Real-time Memory Report at c_bands before calling an iterative solver
           105 MiB given to the printing process from OS
            68 MiB allocation reported by mallinfo(arena+hblkhd)
        484315 MiB available memory on the node where the printing process lives
------------------
     ethr =  6.06E-03,  avg # of iterations =  1.6

     negative rho (up, down):  0.000E+00 2.108E-01

     total cpu time spent up to now is       19.2 secs

     total energy              =    -695.43773917 Ry
     estimated scf accuracy    <      26.10240714 Ry

     total magnetization       =     2.11 Bohr mag/cell
     absolute magnetization    =     2.58 Bohr mag/cell

     iteration # 28     ecut=    45.00 Ry     beta= 0.40
     Davidson diagonalization with overlap

---- Real-time Memory Report at c_bands before calling an iterative solver
           105 MiB given to the printing process from OS
            68 MiB allocation reported by mallinfo(arena+hblkhd)
        484313 MiB available memory on the node where the printing process lives
------------------
     ethr =  6.06E-03,  avg # of iterations =  2.4

     negative rho (up, down):  2.006E-03 2.008E-02

     total cpu time spent up to now is       19.8 secs

     total energy              =    -694.98651964 Ry
     estimated scf accuracy    <      13.87273374 Ry

     total magnetization       =     4.00 Bohr mag/cell
     absolute magnetization    =     4.34 Bohr mag/cell

     iteration # 29     ecut=    45.00 Ry     beta= 0.40
     Davidson diagonalization with overlap

---- Real-time Memory Report at c_bands before calling an iterative solver
           105 MiB given to the printing process from OS
            68 MiB allocation reported by mallinfo(arena+hblkhd)
        484311 MiB available memory on the node where the printing process lives
------------------
     ethr =  6.06E-03,  avg # of iterations =  1.8

     negative rho (up, down):  6.780E-05 3.395E-04

     total cpu time spent up to now is       20.5 secs

     total energy              =    -694.35612830 Ry
     estimated scf accuracy    <       8.68299281 Ry

     total magnetization       =     5.37 Bohr mag/cell
     absolute magnetization    =     5.57 Bohr mag/cell

     iteration # 30     ecut=    45.00 Ry     beta= 0.40
     Davidson diagonalization with overlap

---- Real-time Memory Report at c_bands before calling an iterative solver
           105 MiB given to the printing process from OS
            68 MiB allocation reported by mallinfo(arena+hblkhd)
        484309 MiB available memory on the node where the printing process lives
------------------
     ethr =  6.06E-03,  avg # of iterations =  2.8

     negative rho (up, down):  0.000E+00 7.393E-04

     total cpu time spent up to now is       21.2 secs

     total energy              =    -694.28660413 Ry
     estimated scf accuracy    <       4.54081749 Ry

     total magnetization       =     4.86 Bohr mag/cell
     absolute magnetization    =     5.22 Bohr mag/cell

     iteration # 31     ecut=    45.00 Ry     beta= 0.40
     Davidson diagonalization with overlap

---- Real-time Memory Report at c_bands before calling an iterative solver
           105 MiB given to the printing process from OS
            68 MiB allocation reported by mallinfo(arena+hblkhd)
        484307 MiB available memory on the node where the printing process lives
------------------
     ethr =  6.06E-03,  avg # of iterations =  1.8

     negative rho (up, down):  1.273E-05 7.685E-04

     total cpu time spent up to now is       21.8 secs

     total energy              =    -694.46503135 Ry
     estimated scf accuracy    <       1.64014140 Ry

     total magnetization       =    -0.88 Bohr mag/cell
     absolute magnetization    =     4.60 Bohr mag/cell

     iteration # 32     ecut=    45.00 Ry     beta= 0.40
     Davidson diagonalization with overlap

---- Real-time Memory Report at c_bands before calling an iterative solver
           105 MiB given to the printing process from OS
            68 MiB allocation reported by mallinfo(arena+hblkhd)
        484305 MiB available memory on the node where the printing process lives
------------------
     ethr =  5.47E-03,  avg # of iterations =  1.6

     negative rho (up, down):  5.938E-05 2.789E-04

     total cpu time spent up to now is       22.4 secs

     total energy              =    -694.48530331 Ry
     estimated scf accuracy    <       2.34483154 Ry

     total magnetization       =    -0.61 Bohr mag/cell
     absolute magnetization    =     4.82 Bohr mag/cell

     iteration # 33     ecut=    45.00 Ry     beta= 0.40
     Davidson diagonalization with overlap

---- Real-time Memory Report at c_bands before calling an iterative solver
           105 MiB given to the printing process from OS
            68 MiB allocation reported by mallinfo(arena+hblkhd)
        484304 MiB available memory on the node where the printing process lives
------------------
     ethr =  5.47E-03,  avg # of iterations =  1.2

     negative rho (up, down):  1.021E-04 3.394E-04

     total cpu time spent up to now is       23.1 secs

     total energy              =    -694.50582126 Ry
     estimated scf accuracy    <       2.67414176 Ry

     total magnetization       =    -0.47 Bohr mag/cell
     absolute magnetization    =     5.13 Bohr mag/cell

     iteration # 34     ecut=    45.00 Ry     beta= 0.40
     Davidson diagonalization with overlap

---- Real-time Memory Report at c_bands before calling an iterative solver
           105 MiB given to the printing process from OS
            68 MiB allocation reported by mallinfo(arena+hblkhd)
        484299 MiB available memory on the node where the printing process lives
------------------
     ethr =  5.47E-03,  avg # of iterations =  1.5

     negative rho (up, down):  6.201E-05 7.692E-03

     total cpu time spent up to now is       23.7 secs

     total energy              =    -694.50053463 Ry
     estimated scf accuracy    <       3.72418871 Ry

     total magnetization       =    -0.67 Bohr mag/cell
     absolute magnetization    =     4.54 Bohr mag/cell

     iteration # 35     ecut=    45.00 Ry     beta= 0.40
     Davidson diagonalization with overlap

---- Real-time Memory Report at c_bands before calling an iterative solver
           105 MiB given to the printing process from OS
            68 MiB allocation reported by mallinfo(arena+hblkhd)
        484299 MiB available memory on the node where the printing process lives
------------------
     ethr =  5.47E-03,  avg # of iterations =  1.0

     negative rho (up, down):  4.401E-03 2.034E-02

     total cpu time spent up to now is       24.3 secs

     total energy              =    -694.34473238 Ry
     estimated scf accuracy    <       3.74100332 Ry

     total magnetization       =    -0.75 Bohr mag/cell
     absolute magnetization    =     5.05 Bohr mag/cell

     iteration # 36     ecut=    45.00 Ry     beta= 0.40
     Davidson diagonalization with overlap

---- Real-time Memory Report at c_bands before calling an iterative solver
           105 MiB given to the printing process from OS
            68 MiB allocation reported by mallinfo(arena+hblkhd)
        484299 MiB available memory on the node where the printing process lives
------------------
     ethr =  5.47E-03,  avg # of iterations =  1.1

     negative rho (up, down):  1.359E-03 0.000E+00

     total cpu time spent up to now is       24.9 secs

     total energy              =    -694.44621282 Ry
     estimated scf accuracy    <       0.23644908 Ry

     total magnetization       =     0.97 Bohr mag/cell
     absolute magnetization    =     5.14 Bohr mag/cell

     iteration # 37     ecut=    45.00 Ry     beta= 0.40
     Davidson diagonalization with overlap

---- Real-time Memory Report at c_bands before calling an iterative solver
           105 MiB given to the printing process from OS
            68 MiB allocation reported by mallinfo(arena+hblkhd)
        484298 MiB available memory on the node where the printing process lives
------------------
     ethr =  7.88E-04,  avg # of iterations =  2.4

     negative rho (up, down):  7.100E-04 0.000E+00

     total cpu time spent up to now is       25.6 secs

     total energy              =    -694.64808992 Ry
     estimated scf accuracy    <       5.64979349 Ry

     total magnetization       =     5.57 Bohr mag/cell
     absolute magnetization    =     5.67 Bohr mag/cell

     iteration # 38     ecut=    45.00 Ry     beta= 0.40
     Davidson diagonalization with overlap

---- Real-time Memory Report at c_bands before calling an iterative solver
           105 MiB given to the printing process from OS
            68 MiB allocation reported by mallinfo(arena+hblkhd)
        484298 MiB available memory on the node where the printing process lives
------------------
     ethr =  7.88E-04,  avg # of iterations =  1.1

     negative rho (up, down):  3.130E-05 8.178E-04

     total cpu time spent up to now is       26.2 secs

     total energy              =    -694.62419667 Ry
     estimated scf accuracy    <       5.84680331 Ry

     total magnetization       =     5.84 Bohr mag/cell
     absolute magnetization    =     5.97 Bohr mag/cell

     iteration # 39     ecut=    45.00 Ry     beta= 0.40
     Davidson diagonalization with overlap

---- Real-time Memory Report at c_bands before calling an iterative solver
           105 MiB given to the printing process from OS
            68 MiB allocation reported by mallinfo(arena+hblkhd)
        484298 MiB available memory on the node where the printing process lives
------------------
     ethr =  7.88E-04,  avg # of iterations =  1.1

     total cpu time spent up to now is       26.8 secs

     total energy              =    -694.41322196 Ry
     estimated scf accuracy    <       5.95993814 Ry

     total magnetization       =     5.97 Bohr mag/cell
     absolute magnetization    =     6.01 Bohr mag/cell

     iteration # 40     ecut=    45.00 Ry     beta= 0.40
     Davidson diagonalization with overlap

---- Real-time Memory Report at c_bands before calling an iterative solver
           105 MiB given to the printing process from OS
            68 MiB allocation reported by mallinfo(arena+hblkhd)
        484297 MiB available memory on the node where the printing process lives
------------------
     ethr =  7.88E-04,  avg # of iterations =  1.0

     total cpu time spent up to now is       27.4 secs

     total energy              =    -694.48667472 Ry
     estimated scf accuracy    <       0.14577879 Ry

     total magnetization       =     0.33 Bohr mag/cell
     absolute magnetization    =     4.57 Bohr mag/cell

     iteration # 41     ecut=    45.00 Ry     beta= 0.40
     Davidson diagonalization with overlap

---- Real-time Memory Report at c_bands before calling an iterative solver
           106 MiB given to the printing process from OS
            68 MiB allocation reported by mallinfo(arena+hblkhd)
        484297 MiB available memory on the node where the printing process lives
------------------
     ethr =  4.86E-04,  avg # of iterations =  1.1

     total cpu time spent up to now is       28.1 secs

     total energy              =    -694.48537620 Ry
     estimated scf accuracy    <       3.82633420 Ry

     total magnetization       =    -2.11 Bohr mag/cell
     absolute magnetization    =     3.64 Bohr mag/cell

     iteration # 42     ecut=    45.00 Ry     beta= 0.40
     Davidson diagonalization with overlap

---- Real-time Memory Report at c_bands before calling an iterative solver
           106 MiB given to the printing process from OS
            68 MiB allocation reported by mallinfo(arena+hblkhd)
        484296 MiB available memory on the node where the printing process lives
------------------
     ethr =  4.86E-04,  avg # of iterations =  1.0

     total cpu time spent up to now is       28.7 secs

     total energy              =    -694.49231069 Ry
     estimated scf accuracy    <       1.52611506 Ry

     total magnetization       =    -0.78 Bohr mag/cell
     absolute magnetization    =     3.89 Bohr mag/cell

     iteration # 43     ecut=    45.00 Ry     beta= 0.40
     Davidson diagonalization with overlap

---- Real-time Memory Report at c_bands before calling an iterative solver
           106 MiB given to the printing process from OS
            68 MiB allocation reported by mallinfo(arena+hblkhd)
        484296 MiB available memory on the node where the printing process lives
------------------
     ethr =  4.86E-04,  avg # of iterations =  1.0

     negative rho (up, down):  1.613E-04 0.000E+00

     total cpu time spent up to now is       29.3 secs

     total energy              =    -694.38994076 Ry
     estimated scf accuracy    <       2.04443124 Ry

     total magnetization       =    -0.96 Bohr mag/cell
     absolute magnetization    =     3.63 Bohr mag/cell

     iteration # 44     ecut=    45.00 Ry     beta= 0.40
     Davidson diagonalization with overlap

---- Real-time Memory Report at c_bands before calling an iterative solver
           106 MiB given to the printing process from OS
            68 MiB allocation reported by mallinfo(arena+hblkhd)
        484296 MiB available memory on the node where the printing process lives
------------------
     ethr =  4.86E-04,  avg # of iterations =  1.0

     total cpu time spent up to now is       29.9 secs

     total energy              =    -694.44482587 Ry
     estimated scf accuracy    <       4.15886217 Ry

     total magnetization       =     4.94 Bohr mag/cell
     absolute magnetization    =     5.54 Bohr mag/cell

     iteration # 45     ecut=    45.00 Ry     beta= 0.40
     Davidson diagonalization with overlap

---- Real-time Memory Report at c_bands before calling an iterative solver
           106 MiB given to the printing process from OS
            68 MiB allocation reported by mallinfo(arena+hblkhd)
        484296 MiB available memory on the node where the printing process lives
------------------
     ethr =  4.86E-04,  avg # of iterations =  1.1

     negative rho (up, down):  5.025E-05 4.323E-08

     total cpu time spent up to now is       30.5 secs

     total energy              =    -694.48618476 Ry
     estimated scf accuracy    <       0.00335318 Ry

     total magnetization       =     1.32 Bohr mag/cell
     absolute magnetization    =     5.09 Bohr mag/cell

     iteration # 46     ecut=    45.00 Ry     beta= 0.40
     Davidson diagonalization with overlap

---- Real-time Memory Report at c_bands before calling an iterative solver
           106 MiB given to the printing process from OS
            68 MiB allocation reported by mallinfo(arena+hblkhd)
        484295 MiB available memory on the node where the printing process lives
------------------
     ethr =  1.12E-05,  avg # of iterations =  2.1

     negative rho (up, down):  4.147E-05 2.258E-08

     total cpu time spent up to now is       31.2 secs

     total energy              =    -694.48877282 Ry
     estimated scf accuracy    <       0.09298148 Ry

     total magnetization       =     0.79 Bohr mag/cell
     absolute magnetization    =     5.34 Bohr mag/cell

     iteration # 47     ecut=    45.00 Ry     beta= 0.40
     Davidson diagonalization with overlap

---- Real-time Memory Report at c_bands before calling an iterative solver
           106 MiB given to the printing process from OS
            68 MiB allocation reported by mallinfo(arena+hblkhd)
        484294 MiB available memory on the node where the printing process lives
------------------
     ethr =  1.12E-05,  avg # of iterations =  1.0

     negative rho (up, down):  3.602E-06 0.000E+00

     total cpu time spent up to now is       31.8 secs

     total energy              =    -694.48816342 Ry
     estimated scf accuracy    <       0.05371769 Ry

     total magnetization       =     1.05 Bohr mag/cell
     absolute magnetization    =     5.35 Bohr mag/cell

     iteration # 48     ecut=    45.00 Ry     beta= 0.40
     Davidson diagonalization with overlap

---- Real-time Memory Report at c_bands before calling an iterative solver
           106 MiB given to the printing process from OS
            68 MiB allocation reported by mallinfo(arena+hblkhd)
        484294 MiB available memory on the node where the printing process lives
------------------
     ethr =  1.12E-05,  avg # of iterations =  1.0

     negative rho (up, down):  7.755E-06 0.000E+00

     total cpu time spent up to now is       32.4 secs

     total energy              =    -694.48860266 Ry
     estimated scf accuracy    <       0.06060277 Ry

     total magnetization       =     1.05 Bohr mag/cell
     absolute magnetization    =     5.30 Bohr mag/cell

     iteration # 49     ecut=    45.00 Ry     beta= 0.40
     Davidson diagonalization with overlap

---- Real-time Memory Report at c_bands before calling an iterative solver
           106 MiB given to the printing process from OS
            68 MiB allocation reported by mallinfo(arena+hblkhd)
        484293 MiB available memory on the node where the printing process lives
------------------
     ethr =  1.12E-05,  avg # of iterations =  1.0

     negative rho (up, down):  1.581E-05 0.000E+00

     total cpu time spent up to now is       33.0 secs

     total energy              =    -694.48827030 Ry
     estimated scf accuracy    <       0.06771094 Ry

     total magnetization       =     1.10 Bohr mag/cell
     absolute magnetization    =     5.32 Bohr mag/cell

     iteration # 50     ecut=    45.00 Ry     beta= 0.40
     Davidson diagonalization with overlap

---- Real-time Memory Report at c_bands before calling an iterative solver
           106 MiB given to the printing process from OS
            68 MiB allocation reported by mallinfo(arena+hblkhd)
        484293 MiB available memory on the node where the printing process lives
------------------
     ethr =  1.12E-05,  avg # of iterations =  1.0

     negative rho (up, down):  6.598E-06 0.000E+00

     total cpu time spent up to now is       33.6 secs

     total energy              =    -694.48884717 Ry
     estimated scf accuracy    <       0.07136130 Ry

     total magnetization       =     1.19 Bohr mag/cell
     absolute magnetization    =     5.36 Bohr mag/cell

     iteration # 51     ecut=    45.00 Ry     beta= 0.40
     Davidson diagonalization with overlap

---- Real-time Memory Report at c_bands before calling an iterative solver
           106 MiB given to the printing process from OS
            68 MiB allocation reported by mallinfo(arena+hblkhd)
        484293 MiB available memory on the node where the printing process lives
------------------
     ethr =  1.12E-05,  avg # of iterations =  1.0

     negative rho (up, down):  3.246E-06 1.316E-08

     total cpu time spent up to now is       34.2 secs

     total energy              =    -694.49010936 Ry
     estimated scf accuracy    <       0.07271295 Ry

     total magnetization       =     1.18 Bohr mag/cell
     absolute magnetization    =     5.31 Bohr mag/cell

     iteration # 52     ecut=    45.00 Ry     beta= 0.40
     Davidson diagonalization with overlap

---- Real-time Memory Report at c_bands before calling an iterative solver
           106 MiB given to the printing process from OS
            68 MiB allocation reported by mallinfo(arena+hblkhd)
        484292 MiB available memory on the node where the printing process lives
------------------
     ethr =  1.12E-05,  avg # of iterations =  1.0

     negative rho (up, down):  0.000E+00 9.180E-05

     total cpu time spent up to now is       34.9 secs

     total energy              =    -694.49393857 Ry
     estimated scf accuracy    <       0.11405810 Ry

     total magnetization       =     1.07 Bohr mag/cell
     absolute magnetization    =     5.37 Bohr mag/cell

     iteration # 53     ecut=    45.00 Ry     beta= 0.40
     Davidson diagonalization with overlap

---- Real-time Memory Report at c_bands before calling an iterative solver
           106 MiB given to the printing process from OS
            68 MiB allocation reported by mallinfo(arena+hblkhd)
        484292 MiB available memory on the node where the printing process lives
------------------
     ethr =  1.12E-05,  avg # of iterations =  1.6

     negative rho (up, down):  0.000E+00 1.336E-04

     total cpu time spent up to now is       35.5 secs

     total energy              =    -694.48752587 Ry
     estimated scf accuracy    <       0.16424760 Ry

     total magnetization       =     1.15 Bohr mag/cell
     absolute magnetization    =     5.57 Bohr mag/cell

     iteration # 54     ecut=    45.00 Ry     beta= 0.40
     Davidson diagonalization with overlap

---- Real-time Memory Report at c_bands before calling an iterative solver
           106 MiB given to the printing process from OS
            68 MiB allocation reported by mallinfo(arena+hblkhd)
        484287 MiB available memory on the node where the printing process lives
------------------
     ethr =  1.12E-05,  avg # of iterations =  3.0

     total cpu time spent up to now is       36.2 secs

     total energy              =    -694.47708751 Ry
     estimated scf accuracy    <       0.09701375 Ry

     total magnetization       =     1.07 Bohr mag/cell
     absolute magnetization    =     5.53 Bohr mag/cell

     iteration # 55     ecut=    45.00 Ry     beta= 0.40
     Davidson diagonalization with overlap

---- Real-time Memory Report at c_bands before calling an iterative solver
           106 MiB given to the printing process from OS
            68 MiB allocation reported by mallinfo(arena+hblkhd)
        484287 MiB available memory on the node where the printing process lives
------------------
     ethr =  1.12E-05,  avg # of iterations =  2.9

     negative rho (up, down):  0.000E+00 1.812E-04

     total cpu time spent up to now is       36.9 secs

     total energy              =    -694.41731828 Ry
     estimated scf accuracy    <       1.71207361 Ry

     total magnetization       =    -0.68 Bohr mag/cell
     absolute magnetization    =     4.24 Bohr mag/cell

     iteration # 56     ecut=    45.00 Ry     beta= 0.40
     Davidson diagonalization with overlap

---- Real-time Memory Report at c_bands before calling an iterative solver
           106 MiB given to the printing process from OS
            68 MiB allocation reported by mallinfo(arena+hblkhd)
        484282 MiB available memory on the node where the printing process lives
------------------
     ethr =  1.12E-05,  avg # of iterations =  3.4

     negative rho (up, down):  3.150E-07 2.160E-06

     total cpu time spent up to now is       37.7 secs

     total energy              =    -694.50823321 Ry
     estimated scf accuracy    <       0.17892312 Ry

     total magnetization       =     1.58 Bohr mag/cell
     absolute magnetization    =     5.59 Bohr mag/cell

     iteration # 57     ecut=    45.00 Ry     beta= 0.40
     Davidson diagonalization with overlap

---- Real-time Memory Report at c_bands before calling an iterative solver
           106 MiB given to the printing process from OS
            68 MiB allocation reported by mallinfo(arena+hblkhd)
        484282 MiB available memory on the node where the printing process lives
------------------
     ethr =  1.12E-05,  avg # of iterations =  2.0

     total cpu time spent up to now is       38.3 secs

     total energy              =    -694.50348516 Ry
     estimated scf accuracy    <       0.17156972 Ry

     total magnetization       =     1.60 Bohr mag/cell
     absolute magnetization    =     5.63 Bohr mag/cell

     iteration # 58     ecut=    45.00 Ry     beta= 0.40
     Davidson diagonalization with overlap

---- Real-time Memory Report at c_bands before calling an iterative solver
           106 MiB given to the printing process from OS
            68 MiB allocation reported by mallinfo(arena+hblkhd)
        484282 MiB available memory on the node where the printing process lives
------------------
     ethr =  1.12E-05,  avg # of iterations =  1.5

     total cpu time spent up to now is       39.0 secs

     total energy              =    -694.49998640 Ry
     estimated scf accuracy    <       0.18406524 Ry

     total magnetization       =     1.67 Bohr mag/cell
     absolute magnetization    =     5.57 Bohr mag/cell

     iteration # 59     ecut=    45.00 Ry     beta= 0.40
     Davidson diagonalization with overlap

---- Real-time Memory Report at c_bands before calling an iterative solver
           106 MiB given to the printing process from OS
            68 MiB allocation reported by mallinfo(arena+hblkhd)
        484282 MiB available memory on the node where the printing process lives
------------------
     ethr =  1.12E-05,  avg # of iterations =  1.0

     total cpu time spent up to now is       39.6 secs

     total energy              =    -694.49972828 Ry
     estimated scf accuracy    <       0.13974641 Ry

     total magnetization       =     1.49 Bohr mag/cell
     absolute magnetization    =     5.45 Bohr mag/cell

     iteration # 60     ecut=    45.00 Ry     beta= 0.40
     Davidson diagonalization with overlap

---- Real-time Memory Report at c_bands before calling an iterative solver
           106 MiB given to the printing process from OS
            68 MiB allocation reported by mallinfo(arena+hblkhd)
        484282 MiB available memory on the node where the printing process lives
------------------
     ethr =  1.12E-05,  avg # of iterations =  1.0

     total cpu time spent up to now is       40.2 secs

     total energy              =    -694.49106160 Ry
     estimated scf accuracy    <       0.14077113 Ry

     total magnetization       =     1.48 Bohr mag/cell
     absolute magnetization    =     5.46 Bohr mag/cell

     iteration # 61     ecut=    45.00 Ry     beta= 0.40
     Davidson diagonalization with overlap

---- Real-time Memory Report at c_bands before calling an iterative solver
           106 MiB given to the printing process from OS
            68 MiB allocation reported by mallinfo(arena+hblkhd)
        484282 MiB available memory on the node where the printing process lives
------------------
     ethr =  1.12E-05,  avg # of iterations =  2.0

     total cpu time spent up to now is       40.9 secs

     total energy              =    -694.49586153 Ry
     estimated scf accuracy    <       0.05045895 Ry

     total magnetization       =     0.97 Bohr mag/cell
     absolute magnetization    =     5.43 Bohr mag/cell

     iteration # 62     ecut=    45.00 Ry     beta= 0.40
     Davidson diagonalization with overlap

---- Real-time Memory Report at c_bands before calling an iterative solver
           106 MiB given to the printing process from OS
            68 MiB allocation reported by mallinfo(arena+hblkhd)
        484282 MiB available memory on the node where the printing process lives
------------------
     ethr =  1.12E-05,  avg # of iterations =  1.0

     total cpu time spent up to now is       41.5 secs

     total energy              =    -694.49872042 Ry
     estimated scf accuracy    <       0.11190791 Ry

     total magnetization       =     1.34 Bohr mag/cell
     absolute magnetization    =     5.41 Bohr mag/cell

     iteration # 63     ecut=    45.00 Ry     beta= 0.40
     Davidson diagonalization with overlap

---- Real-time Memory Report at c_bands before calling an iterative solver
           106 MiB given to the printing process from OS
            68 MiB allocation reported by mallinfo(arena+hblkhd)
        484281 MiB available memory on the node where the printing process lives
------------------
     ethr =  1.12E-05,  avg # of iterations =  1.0

     total cpu time spent up to now is       42.1 secs

     total energy              =    -694.50278402 Ry
     estimated scf accuracy    <       0.12768152 Ry

     total magnetization       =     1.45 Bohr mag/cell
     absolute magnetization    =     5.43 Bohr mag/cell

     iteration # 64     ecut=    45.00 Ry     beta= 0.40
     Davidson diagonalization with overlap

---- Real-time Memory Report at c_bands before calling an iterative solver
           106 MiB given to the printing process from OS
            68 MiB allocation reported by mallinfo(arena+hblkhd)
        484281 MiB available memory on the node where the printing process lives
------------------
     ethr =  1.12E-05,  avg # of iterations =  1.5

     negative rho (up, down):  0.000E+00 9.829E-05

     total cpu time spent up to now is       42.7 secs

     total energy              =    -694.46877812 Ry
     estimated scf accuracy    <       0.18355169 Ry

     total magnetization       =     1.68 Bohr mag/cell
     absolute magnetization    =     5.56 Bohr mag/cell

     iteration # 65     ecut=    45.00 Ry     beta= 0.40
     Davidson diagonalization with overlap

---- Real-time Memory Report at c_bands before calling an iterative solver
           106 MiB given to the printing process from OS
            68 MiB allocation reported by mallinfo(arena+hblkhd)
        484281 MiB available memory on the node where the printing process lives
------------------
     ethr =  1.12E-05,  avg # of iterations =  3.8

     negative rho (up, down):  0.000E+00 4.127E-05

     total cpu time spent up to now is       43.5 secs

     total energy              =    -694.47953940 Ry
     estimated scf accuracy    <       1.26878710 Ry

     total magnetization       =    -1.51 Bohr mag/cell
     absolute magnetization    =     5.38 Bohr mag/cell

     iteration # 66     ecut=    45.00 Ry     beta= 0.40
     Davidson diagonalization with overlap

---- Real-time Memory Report at c_bands before calling an iterative solver
           106 MiB given to the printing process from OS
            68 MiB allocation reported by mallinfo(arena+hblkhd)
        484281 MiB available memory on the node where the printing process lives
------------------
     ethr =  1.12E-05,  avg # of iterations =  1.9

     negative rho (up, down):  0.000E+00 1.370E-05

     total cpu time spent up to now is       44.1 secs

     total energy              =    -694.49325103 Ry
     estimated scf accuracy    <       0.05171259 Ry

     total magnetization       =     0.23 Bohr mag/cell
     absolute magnetization    =     5.31 Bohr mag/cell

     iteration # 67     ecut=    45.00 Ry     beta= 0.40
     Davidson diagonalization with overlap

---- Real-time Memory Report at c_bands before calling an iterative solver
           106 MiB given to the printing process from OS
            68 MiB allocation reported by mallinfo(arena+hblkhd)
        484281 MiB available memory on the node where the printing process lives
------------------
     ethr =  1.12E-05,  avg # of iterations =  1.0

     negative rho (up, down):  0.000E+00 1.727E-06

     total cpu time spent up to now is       44.7 secs

     total energy              =    -694.49257276 Ry
     estimated scf accuracy    <       0.06689745 Ry

     total magnetization       =     0.05 Bohr mag/cell
     absolute magnetization    =     5.36 Bohr mag/cell

     iteration # 68     ecut=    45.00 Ry     beta= 0.40
     Davidson diagonalization with overlap

---- Real-time Memory Report at c_bands before calling an iterative solver
           106 MiB given to the printing process from OS
            68 MiB allocation reported by mallinfo(arena+hblkhd)
        484281 MiB available memory on the node where the printing process lives
------------------
     ethr =  1.12E-05,  avg # of iterations =  1.0

     negative rho (up, down):  0.000E+00 1.823E-05

     total cpu time spent up to now is       45.3 secs

     total energy              =    -694.49297997 Ry
     estimated scf accuracy    <       0.03552940 Ry

     total magnetization       =     0.16 Bohr mag/cell
     absolute magnetization    =     5.39 Bohr mag/cell

     iteration # 69     ecut=    45.00 Ry     beta= 0.40
     Davidson diagonalization with overlap

---- Real-time Memory Report at c_bands before calling an iterative solver
           106 MiB given to the printing process from OS
            68 MiB allocation reported by mallinfo(arena+hblkhd)
        484281 MiB available memory on the node where the printing process lives
------------------
     ethr =  1.12E-05,  avg # of iterations =  1.0

     negative rho (up, down):  0.000E+00 1.524E-05

     total cpu time spent up to now is       46.0 secs

     total energy              =    -694.49402326 Ry
     estimated scf accuracy    <       0.05123137 Ry

     total magnetization       =     0.14 Bohr mag/cell
     absolute magnetization    =     5.34 Bohr mag/cell

     iteration # 70     ecut=    45.00 Ry     beta= 0.40
     Davidson diagonalization with overlap

---- Real-time Memory Report at c_bands before calling an iterative solver
           106 MiB given to the printing process from OS
            68 MiB allocation reported by mallinfo(arena+hblkhd)
        484281 MiB available memory on the node where the printing process lives
------------------
     ethr =  1.12E-05,  avg # of iterations =  1.0

     negative rho (up, down):  0.000E+00 5.186E-06

     total cpu time spent up to now is       46.6 secs

     total energy              =    -694.49124852 Ry
     estimated scf accuracy    <       0.12578956 Ry

     total magnetization       =    -0.15 Bohr mag/cell
     absolute magnetization    =     5.37 Bohr mag/cell

     iteration # 71     ecut=    45.00 Ry     beta= 0.40
     Davidson diagonalization with overlap

---- Real-time Memory Report at c_bands before calling an iterative solver
           106 MiB given to the printing process from OS
            68 MiB allocation reported by mallinfo(arena+hblkhd)
        484281 MiB available memory on the node where the printing process lives
------------------
     ethr =  1.12E-05,  avg # of iterations =  1.0

     negative rho (up, down):  0.000E+00 8.875E-06

     total cpu time spent up to now is       47.2 secs

     total energy              =    -694.49189711 Ry
     estimated scf accuracy    <       0.01373754 Ry

     total magnetization       =     0.35 Bohr mag/cell
     absolute magnetization    =     5.36 Bohr mag/cell

     iteration # 72     ecut=    45.00 Ry     beta= 0.40
     Davidson diagonalization with overlap

---- Real-time Memory Report at c_bands before calling an iterative solver
           106 MiB given to the printing process from OS
            68 MiB allocation reported by mallinfo(arena+hblkhd)
        484274 MiB available memory on the node where the printing process lives
------------------
     ethr =  1.12E-05,  avg # of iterations =  1.0

     negative rho (up, down):  0.000E+00 8.692E-06

     total cpu time spent up to now is       47.8 secs

     total energy              =    -694.49205114 Ry
     estimated scf accuracy    <       0.00142261 Ry

     total magnetization       =     0.54 Bohr mag/cell
     absolute magnetization    =     5.33 Bohr mag/cell

     iteration # 73     ecut=    45.00 Ry     beta= 0.40
     Davidson diagonalization with overlap

---- Real-time Memory Report at c_bands before calling an iterative solver
           106 MiB given to the printing process from OS
            68 MiB allocation reported by mallinfo(arena+hblkhd)
        484274 MiB available memory on the node where the printing process lives
------------------
     ethr =  4.74E-06,  avg # of iterations =  1.0

     negative rho (up, down):  0.000E+00 7.907E-06

     total cpu time spent up to now is       48.4 secs

     total energy              =    -694.49203153 Ry
     estimated scf accuracy    <       0.00100936 Ry

     total magnetization       =     0.56 Bohr mag/cell
     absolute magnetization    =     5.33 Bohr mag/cell

     iteration # 74     ecut=    45.00 Ry     beta= 0.40
     Davidson diagonalization with overlap

---- Real-time Memory Report at c_bands before calling an iterative solver
           106 MiB given to the printing process from OS
            68 MiB allocation reported by mallinfo(arena+hblkhd)
        484274 MiB available memory on the node where the printing process lives
------------------
     ethr =  3.36E-06,  avg # of iterations =  1.0

     negative rho (up, down):  0.000E+00 7.830E-06

     total cpu time spent up to now is       49.0 secs

     total energy              =    -694.49203582 Ry
     estimated scf accuracy    <       0.00022491 Ry

     total magnetization       =     0.59 Bohr mag/cell
     absolute magnetization    =     5.33 Bohr mag/cell

     iteration # 75     ecut=    45.00 Ry     beta= 0.40
     Davidson diagonalization with overlap

---- Real-time Memory Report at c_bands before calling an iterative solver
           106 MiB given to the printing process from OS
            68 MiB allocation reported by mallinfo(arena+hblkhd)
        484274 MiB available memory on the node where the printing process lives
------------------
     ethr =  7.50E-07,  avg # of iterations =  1.0

     negative rho (up, down):  0.000E+00 9.784E-06

     total cpu time spent up to now is       49.6 secs

     total energy              =    -694.49202975 Ry
     estimated scf accuracy    <       0.00007621 Ry

     total magnetization       =     0.60 Bohr mag/cell
     absolute magnetization    =     5.33 Bohr mag/cell

     iteration # 76     ecut=    45.00 Ry     beta= 0.40
     Davidson diagonalization with overlap

---- Real-time Memory Report at c_bands before calling an iterative solver
           106 MiB given to the printing process from OS
            68 MiB allocation reported by mallinfo(arena+hblkhd)
        484274 MiB available memory on the node where the printing process lives
------------------
     ethr =  2.54E-07,  avg # of iterations =  1.0

     negative rho (up, down):  0.000E+00 1.071E-05

     total cpu time spent up to now is       50.2 secs

     total energy              =    -694.49204309 Ry
     estimated scf accuracy    <       0.00033774 Ry

     total magnetization       =     0.67 Bohr mag/cell
     absolute magnetization    =     5.33 Bohr mag/cell

     iteration # 77     ecut=    45.00 Ry     beta= 0.40
     Davidson diagonalization with overlap

---- Real-time Memory Report at c_bands before calling an iterative solver
           106 MiB given to the printing process from OS
            68 MiB allocation reported by mallinfo(arena+hblkhd)
        484274 MiB available memory on the node where the printing process lives
------------------
     ethr =  2.54E-07,  avg # of iterations =  1.0

     negative rho (up, down):  0.000E+00 1.060E-05

     total cpu time spent up to now is       50.8 secs

     total energy              =    -694.49205915 Ry
     estimated scf accuracy    <       0.00092751 Ry

     total magnetization       =     0.69 Bohr mag/cell
     absolute magnetization    =     5.33 Bohr mag/cell

[...]
    -2.9127  -2.7346   1.0262

     occupation numbers 
     1.0000   1.0000   1.0000   1.0000   1.0000   1.0000   1.0000   1.0000
     1.0000   1.0000   1.0000   1.0007   1.0665   1.0072   0.5328   0.3258
     0.2615   0.0448   0.0000

          k =-0.1010-0.5051 0.7071 ( 10563 PWs)   bands (ev):

   -98.9514 -62.4078 -62.4078 -62.4078 -13.3515 -13.0118  -5.4624  -5.4616
    -5.4484  -5.4480  -5.4467  -3.8695  -3.3155  -3.2617  -2.9588  -2.9139
    -2.8936  -2.7475   0.9023

     occupation numbers 
     1.0000   1.0000   1.0000   1.0000   1.0000   1.0000   1.0000   1.0000
     1.0000   1.0000   1.0000   1.0004   1.0764   1.0430   0.3640   0.2639
     0.2247   0.0522   0.0000

          k = 0.0000-0.4041 0.6061 ( 10567 PWs)   bands (ev):

   -98.9514 -62.4078 -62.4078 -62.4078 -13.3514 -13.0118  -5.4623  -5.4617
    -5.4484  -5.4477  -5.4468  -3.8721  -3.3205  -3.2364  -2.9911  -2.9166
    -2.8918  -2.7378   1.0376

     occupation numbers 
     1.0000   1.0000   1.0000   1.0000   1.0000   1.0000   1.0000   1.0000
     1.0000   1.0000   1.0000   1.0004   1.0780   1.0157   0.4454   0.2694
     0.2214   0.0465   0.0000

 ------ SPIN DOWN ----------


          k = 0.0000 0.0000 0.0000 ( 10489 PWs)   bands (ev):

   -96.1951 -59.7332 -59.7332 -59.7332 -14.7232 -13.6670  -4.5031  -4.5031
    -4.5031  -3.5171  -3.5171  -3.5171  -3.0183  -3.0183  -3.0029  -3.0029
    -3.0029  -2.2816   1.9348

     occupation numbers 
     1.0000   1.0000   1.0000   1.0000   1.0000   1.0000   1.0000   1.0000
     1.0000   1.0415   1.0415   1.0415   0.5184   0.5184   0.4766   0.4766
     0.4766   0.0000   0.0000

          k = 0.1010 0.1010-0.1010 ( 10600 PWs)   bands (ev):

   -96.1951 -59.7333 -59.7333 -59.7333 -14.7231 -13.6669  -4.5067  -4.5025
    -4.5025  -3.5411  -3.5203  -3.5203  -3.0185  -3.0185  -3.0097  -3.0040
    -3.0040  -2.2267   1.7183

     occupation numbers 
     1.0000   1.0000   1.0000   1.0000   1.0000   1.0000   1.0000   1.0000
     1.0000   1.0341   1.0405   1.0405   0.5187   0.5187   0.4948   0.4796
     0.4796   0.0000   0.0000

          k = 0.2020 0.2020-0.2020 ( 10567 PWs)   bands (ev):

   -96.1951 -59.7333 -59.7333 -59.7332 -14.7229 -13.6668  -4.5157  -4.5009
    -4.5009  -3.5863  -3.5273  -3.5273  -3.0236  -3.0192  -3.0192  -3.0058
    -3.0058  -2.1139   1.5445

     occupation numbers 
     1.0000   1.0000   1.0000   1.0000   1.0000   1.0000   1.0000   1.0000
     1.0000   1.0223   1.0382   1.0382   0.5326   0.5208   0.5208   0.4843
     0.4843   0.0000   0.0000

          k = 0.3030 0.3030-0.3030 ( 10567 PWs)   bands (ev):

   -96.1951 -59.7333 -59.7333 -59.7333 -14.7228 -13.6667  -4.5239  -4.4997
    -4.4997  -3.6156  -3.5329  -3.5329  -3.0342  -3.0206  -3.0206  -3.0064
    -3.0064  -2.0320   1.5087

     occupation numbers 
     1.0000   1.0000   1.0000   1.0000   1.0000   1.0000   1.0000   1.0000
     1.0000   1.0163   1.0365   1.0365   0.5619   0.5246   0.5246   0.4861
     0.4861   0.0000   0.0000

          k = 0.2020-0.0000 0.0000 ( 10593 PWs)   bands (ev):

   -96.1951 -59.7333 -59.7333 -59.7333 -14.7231 -13.6669  -4.5052  -4.5052
    -4.5040  -3.5519  -3.5176  -3.5176  -3.0188  -3.0182  -3.0082  -3.0061
    -3.0061  -2.2103   1.6491

     occupation numbers 
     1.0000   1.0000   1.0000   1.0000   1.0000   1.0000   1.0000   1.0000
     1.0000   1.0310   1.0413   1.0413   0.5197   0.5179   0.4908   0.4852
     0.4852   0.0000   0.0000

          k = 0.3030 0.1010-0.1010 ( 10558 PWs)   bands (ev):

   -96.1951 -59.7333 -59.7333 -59.7332 -14.7229 -13.6668  -4.5143  -4.5059
    -4.5037  -3.5813  -3.5239  -3.5210  -3.0214  -3.0185  -3.0171  -3.0085
    -3.0072  -2.1211   1.5153

     occupation numbers 
     1.0000   1.0000   1.0000   1.0000   1.0000   1.0000   1.0000   1.0000
     1.0000   1.0234   1.0393   1.0402   0.5266   0.5189   0.5150   0.4917
     0.4883   0.0000   0.0000

          k = 0.4041 0.2020-0.2020 ( 10568 PWs)   bands (ev):

   -96.1951 -59.7333 -59.7333 -59.7333 -14.7228 -13.6667  -4.5255  -4.5044
    -4.5039  -3.6028  -3.5326  -3.5278  -3.0313  -3.0206  -3.0201  -3.0088
    -3.0084  -2.0334   1.5114

     occupation numbers 
     1.0000   1.0000   1.0000   1.0000   1.0000   1.0000   1.0000   1.0000
     1.0000   1.0188   1.0366   1.0381   0.5539   0.5245   0.5231   0.4924
     0.4915   0.0000   0.0000

          k =-0.2020-0.4041 0.4041 ( 10572 PWs)   bands (ev):

   -96.1951 -59.7333 -59.7333 -59.7333 -14.7227 -13.6667  -4.5290  -4.5061
    -4.5008  -3.6090  -3.5334  -3.5330  -3.0347  -3.0220  -3.0204  -3.0093
    -3.0079  -2.0075   1.5549

     occupation numbers 
     1.0000   1.0000   1.0000   1.0000   1.0000   1.0000   1.0000   1.0000
     1.0000   1.0175   1.0364   1.0365   0.5634   0.5283   0.5239   0.4938
     0.4901   0.0000   0.0000

          k =-0.1010-0.3030 0.3030 ( 10564 PWs)   bands (ev):

   -96.1951 -59.7333 -59.7333 -59.7333 -14.7228 -13.6667  -4.5218  -4.5074
    -4.4989  -3.5984  -3.5327  -3.5262  -3.0279  -3.0207  -3.0192  -3.0100
    -3.0064  -2.0586   1.5390

     occupation numbers 
     1.0000   1.0000   1.0000   1.0000   1.0000   1.0000   1.0000   1.0000
     1.0000   1.0196   1.0366   1.0386   0.5445   0.5248   0.5208   0.4957
     0.4860   0.0000   0.0000

          k =-0.0000-0.2020 0.2020 ( 10577 PWs)   bands (ev):

   -96.1951 -59.7333 -59.7333 -59.7332 -14.7230 -13.6669  -4.5110  -4.5066
    -4.4997  -3.5699  -3.5270  -3.5194  -3.0194  -3.0186  -3.0156  -3.0085
    -3.0045  -2.1553   1.5874

     occupation numbers 
     1.0000   1.0000   1.0000   1.0000   1.0000   1.0000   1.0000   1.0000
     1.0000   1.0262   1.0383   1.0408   0.5214   0.5191   0.5110   0.4917
     0.4809   0.0000   0.0000

          k = 0.4041-0.0000 0.0000 ( 10514 PWs)   bands (ev):

   -96.1951 -59.7332 -59.7332 -59.7332 -14.7229 -13.6667  -4.5219  -4.5100
    -4.5100  -3.5884  -3.5185  -3.5185  -3.0248  -3.0176  -3.0143  -3.0126
    -3.0126  -2.0732   1.4003

     occupation numbers 
     1.0000   1.0000   1.0000   1.0000   1.0000   1.0000   1.0000   1.0000
     1.0000   1.0218   1.0410   1.0410   0.5361   0.5163   0.5073   0.5028
     0.5028   0.0000   0.0000

          k = 0.5051 0.1010-0.1010 ( 10564 PWs)   bands (ev):

   -96.1951 -59.7333 -59.7333 -59.7332 -14.7228 -13.6666  -4.5368  -4.5118
    -4.5103  -3.5894  -3.5251  -3.5217  -3.0309  -3.0197  -3.0188  -3.0134
    -3.0124  -2.0096   1.3987

     occupation numbers 
     1.0000   1.0000   1.0000   1.0000   1.0000   1.0000   1.0000   1.0000
     1.0000   1.0216   1.0389   1.0400   0.5527   0.5221   0.5196   0.5049
     0.5022   0.0000   0.0000

          k =-0.1010-0.5051 0.5051 ( 10559 PWs)   bands (ev):

   -96.1951 -59.7333 -59.7333 -59.7333 -14.7227 -13.6666  -4.5423  -4.5131
    -4.5065  -3.5880  -3.5343  -3.5281  -3.0338  -3.0247  -3.0196  -3.0124
    -3.0118  -1.9783   1.5519

     occupation numbers 
     1.0000   1.0000   1.0000   1.0000   1.0000   1.0000   1.0000   1.0000
     1.0000   1.0219   1.0361   1.0380   0.5609   0.5358   0.5219   0.5021
     0.5007   0.0000   0.0000

          k = 0.0000-0.4041 0.4041 ( 10567 PWs)   bands (ev):

   -96.1951 -59.7333 -59.7333 -59.7333 -14.7227 -13.6666  -4.5343  -4.5124
    -4.5014  -3.5959  -3.5330  -3.5315  -3.0311  -3.0253  -3.0193  -3.0124
    -3.0093  -1.9994   1.6530

     occupation numbers 
     1.0000   1.0000   1.0000   1.0000   1.0000   1.0000   1.0000   1.0000
     1.0000   1.0202   1.0365   1.0370   0.5533   0.5373   0.5210   0.5023
     0.4938   0.0000   0.0000

          k = 0.6061-0.0000 0.0000 ( 10570 PWs)   bands (ev):

   -96.1951 -59.7333 -59.7333 -59.7333 -14.7227 -13.6665  -4.5512  -4.5141
    -4.5141  -3.5822  -3.5192  -3.5192  -3.0350  -3.0174  -3.0174  -3.0172
    -3.0151  -1.9789   1.3116

     occupation numbers 
     1.0000   1.0000   1.0000   1.0000   1.0000   1.0000   1.0000   1.0000
     1.0000   1.0232   1.0408   1.0408   0.5641   0.5159   0.5159   0.5151
     0.5096   0.0000   0.0000

          k =-0.0000-0.6061 0.6061 ( 10570 PWs)   bands (ev):

   -96.1951 -59.7333 -59.7333 -59.7333 -14.7227 -13.6665  -4.5537  -4.5147
    -4.5124  -3.5786  -3.5260  -3.5220  -3.0359  -3.0218  -3.0190  -3.0153
    -3.0137  -1.9653   1.3762

     occupation numbers 
     1.0000   1.0000   1.0000   1.0000   1.0000   1.0000   1.0000   1.0000
     1.0000   1.0241   1.0387   1.0399   0.5665   0.5277   0.5200   0.5101
     0.5058   0.0000   0.0000

          k = 0.4041 0.2020 0.0000 ( 10573 PWs)   bands (ev):

   -96.1951 -59.7333 -59.7333 -59.7333 -14.7228 -13.6667  -4.5247  -4.5117
    -4.5031  -3.5932  -3.5290  -3.5229  -3.0269  -3.0204  -3.0185  -3.0127
    -3.0085  -2.0480   1.4833

     occupation numbers 
     1.0000   1.0000   1.0000   1.0000   1.0000   1.0000   1.0000   1.0000
     1.0000   1.0207   1.0377   1.0396   0.5417   0.5240   0.5187   0.5030
     0.4917   0.0000   0.0000

          k =-0.2020-0.4041 0.6061 ( 10547 PWs)   bands (ev):

   -96.1951 -59.7333 -59.7333 -59.7332 -14.7227 -13.6666  -4.5357  -4.5144
    -4.5023  -3.5941  -3.5345  -3.5288  -3.0327  -3.0236  -3.0199  -3.0131
    -3.0095  -1.9928   1.5811

     occupation numbers 
     1.0000   1.0000   1.0000   1.0000   1.0000   1.0000   1.0000   1.0000
     1.0000   1.0206   1.0361   1.0378   0.5578   0.5327   0.5225   0.5041
     0.4943   0.0000   0.0000

          k =-0.1010-0.5051 0.7071 ( 10563 PWs)   bands (ev):

   -96.1951 -59.7333 -59.7333 -59.7333 -14.7227 -13.6665  -4.5474  -4.5179
    -4.5070  -3.5814  -3.5305  -3.5238  -3.0339  -3.0220  -3.0201  -3.0162
    -3.0114  -1.9739   1.4476

     occupation numbers 
     1.0000   1.0000   1.0000   1.0000   1.0000   1.0000   1.0000   1.0000
     1.0000   1.0234   1.0372   1.0394   0.5612   0.5283   0.5232   0.5126
     0.4996   0.0000   0.0000

          k = 0.0000-0.4041 0.6061 ( 10567 PWs)   bands (ev):

   -96.1951 -59.7333 -59.7333 -59.7333 -14.7227 -13.6665  -4.5463  -4.5198
    -4.5034  -3.5800  -3.5374  -3.5273  -3.0334  -3.0254  -3.0206  -3.0158
    -3.0105  -1.9669   1.6295

     occupation numbers 
     1.0000   1.0000   1.0000   1.0000   1.0000   1.0000   1.0000   1.0000
     1.0000   1.0237   1.0352   1.0383   0.5598   0.5377   0.5244   0.5114
     0.4970   0.0000   0.0000

     the Fermi energy is    -2.9737 ev

!    total energy              =    -694.49203547 Ry
     estimated scf accuracy    <          1.4E-11 Ry
     smearing contrib. (-TS)   =      -0.01691584 Ry
     internal energy E=F+TS    =    -694.47511963 Ry

     The total energy is F=E-TS. E is the sum of the following terms:
     one-electron contribution =    -385.22892831 Ry
     hartree contribution      =     193.76901125 Ry
     xc contribution           =     -81.36063252 Ry
     ewald contribution        =    -106.76096753 Ry
     one-center paw contrib.   =    -314.89360252 Ry
      -> PAW hartree energy AE =       0.00000000 Ry
      -> PAW hartree energy PS =       0.00000000 Ry
      -> PAW xc energy AE      =       0.00000000 Ry
      -> PAW xc energy PS      =       0.00000000 Ry
      -> total E_H with PAW    =     193.76901125 Ry
      -> total E_XC with PAW   =     -81.36063252 Ry

     total magnetization       =     0.62 Bohr mag/cell
     absolute magnetization    =     5.33 Bohr mag/cell

     convergence has been achieved in  91 iterations

     negative rho (up, down):  0.000E+00 7.415E-06

     Forces acting on atoms (cartesian axes, Ry/au):

     atom    1 type  1   force =     0.00000000    0.00000000   -0.00000000
     atom    2 type  3   force =     0.00000000    0.00000000   -0.00000000
     atom    3 type  2   force =     0.00000000    0.00000000   -0.00000000
     The non-local contrib.  to forces
     atom    1 type  1   force =    -0.00000000   -0.00000000    0.00000000
     atom    2 type  3   force =     0.00000000   -0.00000000   -0.00000000
     atom    3 type  2   force =     0.00000000    0.00000000   -0.00000000
     The ionic contribution  to forces
     atom    1 type  1   force =    -0.00000000    0.00000000    0.00000000
     atom    2 type  3   force =    -0.00000000    0.00000000    0.00000000
     atom    3 type  2   force =     0.00000000   -0.00000000    0.00000000
     The local contribution  to forces
     atom    1 type  1   force =     0.00000000    0.00000000    0.00000000
     atom    2 type  3   force =    -0.00000000   -0.00000000   -0.00000000
     atom    3 type  2   force =    -0.00000000   -0.00000000   -0.00000000
     The core correction contribution to forces
     atom    1 type  1   force =     0.00000000   -0.00000000    0.00000000
     atom    2 type  3   force =     0.00000000    0.00000000   -0.00000000
     atom    3 type  2   force =    -0.00000000    0.00000000   -0.00000000
     The Hubbard contrib.    to forces
     atom    1 type  1   force =     0.00000000    0.00000000    0.00000000
     atom    2 type  3   force =     0.00000000    0.00000000    0.00000000
     atom    3 type  2   force =     0.00000000    0.00000000    0.00000000
     The SCF correction term to forces
     atom    1 type  1   force =     0.00000000   -0.00000000   -0.00000000
     atom    2 type  3   force =    -0.00000000   -0.00000000    0.00000000
     atom    3 type  2   force =    -0.00000000   -0.00000000   -0.00000000

     Total force =     0.000000     Total SCF correction =     0.000000


     Computing stress (Cartesian axis) and pressure


     negative rho (up, down):  0.000E+00 7.415E-06
          total   stress  (Ry/bohr**3)                   (kbar)     P=      -12.33
  -0.00008381   0.00000000   0.00000000          -12.33        0.00        0.00
   0.00000000  -0.00008381  -0.00000000            0.00      -12.33       -0.00
   0.00000000  -0.00000000  -0.00008381            0.00       -0.00      -12.33

     kinetic stress (kbar)   2634.03      0.00     -0.00
                                0.00   2634.03     -0.00
                                0.00     -0.00   2634.03

     local   stress (kbar)  -4970.43      0.00      0.00
                                0.00  -4970.43     -0.00
                                0.00     -0.00  -4970.43

     nonloc. stress (kbar)   1270.57     -0.00      0.00
                               -0.00   1270.57      0.00
                                0.00      0.00   1270.57

     hartree stress (kbar)   4584.43      0.00     -0.00
                                0.00   4584.43     -0.00
                               -0.00     -0.00   4584.43

     exc-cor stress (kbar)   2016.95      0.00     -0.00
                                0.00   2016.95      0.00
                               -0.00      0.00   2016.95

     corecor stress (kbar)  -3021.99     -0.00      0.00
                               -0.00  -3021.99      0.00
                                0.00      0.00  -3021.99

     ewald   stress (kbar)  -2525.89     -0.00     -0.00
                               -0.00  -2525.89      0.00
                               -0.00      0.00  -2525.89

     hubbard stress (kbar)      0.00      0.00      0.00
                                0.00      0.00      0.00
                                0.00      0.00      0.00

     DFT-D   stress (kbar)      0.00      0.00      0.00
                                0.00      0.00      0.00
                                0.00      0.00      0.00

     XDM     stress (kbar)      0.00      0.00      0.00
                                0.00      0.00      0.00
                                0.00      0.00      0.00

     dft-nl  stress (kbar)      0.00      0.00      0.00
                                0.00      0.00      0.00
                                0.00      0.00      0.00

     TS-vdW  stress (kbar)      0.00      0.00      0.00
                                0.00      0.00      0.00
                                0.00      0.00      0.00

     MDB     stress (kbar)      0.00      0.00      0.00
                                0.00      0.00      0.00
                                0.00      0.00      0.00

     3D-RISM stress (kbar)      0.00      0.00      0.00
                                0.00      0.00      0.00
                                0.00      0.00      0.00


     Writing all to output data dir ./out/aiida.save/ :
     XML data file, charge density, pseudopotentials, collected wavefunctions

     init_run     :      1.23s CPU      1.30s WALL (       1 calls)
     electrons    :     55.26s CPU     57.88s WALL (       1 calls)
     forces       :      0.23s CPU      0.25s WALL (       1 calls)
     stress       :      0.67s CPU      0.70s WALL (       1 calls)

     Called by init_run:
     wfcinit      :      0.15s CPU      0.16s WALL (       1 calls)
     wfcinit:atom :      0.00s CPU      0.00s WALL (       6 calls)
     wfcinit:wfcr :      0.14s CPU      0.15s WALL (       6 calls)
     potinit      :      0.45s CPU      0.48s WALL (       1 calls)
     hinit0       :      0.51s CPU      0.52s WALL (       1 calls)

     Called by electrons:
     c_bands      :     20.73s CPU     22.36s WALL (      91 calls)
     sum_band     :     11.85s CPU     12.41s WALL (      91 calls)
     v_of_rho     :     11.54s CPU     11.78s WALL (      92 calls)
     v_h          :      0.39s CPU      0.41s WALL (      92 calls)
     v_xc         :     11.40s CPU     11.65s WALL (      94 calls)
     newd         :      4.16s CPU      4.20s WALL (      92 calls)
     PAW_pot      :      3.76s CPU      3.76s WALL (      92 calls)
     mix_rho      :      1.50s CPU      1.55s WALL (      91 calls)

     Called by c_bands:
     init_us_2    :      0.55s CPU      0.57s WALL (    1110 calls)
     init_us_2:cp :      0.54s CPU      0.56s WALL (    1110 calls)
     cegterg      :     18.37s CPU     19.74s WALL (     546 calls)

     Called by sum_band:
     sum_band:wei :      0.08s CPU      0.08s WALL (      91 calls)
     sum_band:loo :      4.31s CPU      4.61s WALL (      91 calls)
     sum_band:buf :      0.08s CPU      0.08s WALL (     546 calls)
     sum_band:ini :      0.26s CPU      0.26s WALL (     546 calls)
     sum_band:cal :      0.24s CPU      0.25s WALL (     546 calls)
     sum_band:bec :      0.01s CPU      0.01s WALL (     546 calls)
     addusdens    :      5.95s CPU      6.00s WALL (      91 calls)
                                        0.00s GPU  (      91 calls)
     addusd:skk   :      0.01s CPU      0.01s WALL (     273 calls)
                                        0.00s GPU  (     273 calls)

     Called by *egterg:
     cdiaghg      :      0.55s CPU      0.57s WALL (    1334 calls)
     cegterg:over :      0.47s CPU      0.48s WALL (     788 calls)
     cegterg:upda :      0.29s CPU      0.30s WALL (     788 calls)
     cegterg:last :      0.42s CPU      0.43s WALL (     712 calls)
     h_psi        :     15.72s CPU     17.03s WALL (    1340 calls)
     s_psi        :      0.46s CPU      0.47s WALL (    1340 calls)
     g_psi        :      0.04s CPU      0.05s WALL (     788 calls)

     Called by h_psi:
     h_psi:calbec :      0.59s CPU      0.61s WALL (    1340 calls)
     vloc_psi     :     14.50s CPU     15.76s WALL (    1340 calls)
     add_vuspsi   :      0.47s CPU      0.49s WALL (    1340 calls)

     General routines
     calbec       :      0.84s CPU      0.87s WALL (    1916 calls)
     fft          :      4.18s CPU      4.47s WALL (    2338 calls)
     ffts         :      0.55s CPU      0.58s WALL (     366 calls)
     fftw         :     14.06s CPU     15.42s WALL (   54532 calls)
     interpolate  :      0.82s CPU      0.86s WALL (     184 calls)

     Parallel routines

     PAW routines
     PAW_pot      :      3.76s CPU      3.76s WALL (      92 calls)
     PAW_symme    :      0.02s CPU      0.02s WALL (     183 calls)

     PWSCF        :     57.68s CPU   1m 0.69s WALL


   This run was terminated on:  20:32:32  29Nov2023            

=------------------------------------------------------------------------------=
   JOB DONE.
=------------------------------------------------------------------------------=
