
     Program PWSCF v.7.2 starts on 22Oct2023 at 18:10:36 

     This program is part of the open-source Quantum ESPRESSO suite
     for quantum simulation of materials; please cite
         "P. Giannozzi et al., J. Phys.:Condens. Matter 21 395502 (2009);
         "P. Giannozzi et al., J. Phys.:Condens. Matter 29 465901 (2017);
         "P. Giannozzi et al., J. Chem. Phys. 152 154105 (2020);
          URL http://www.quantum-espresso.org", 
     in publications or presentations arising from this work. More details at
     http://www.quantum-espresso.org/quote

     Parallel version (MPI & OpenMP), running on      12 processor cores
     Number of MPI processes:                 1
     Threads/MPI process:                    12

     MPI processes distributed on     1 nodes
     60501 MiB available memory on the printing compute node when the environment starts
 
     Reading input from aiida.in

     Current dimensions of program PWSCF are:
     Max number of different atomic species (ntypx) = 10
     Max number of k-points (npk) =  40000
     Max angular momentum in pseudopotentials (lmaxx) =  4
     Message from routine setup:
     using ibrav=0 with symmetry is DISCOURAGED, use correct ibrav instead
 
     Subspace diagonalization in iterative solution of the eigenvalue problem:
     a serial algorithm will be used

 
     G-vector sticks info
     --------------------
     sticks:   dense  smooth     PW     G-vecs:    dense   smooth      PW
     Sum        4033    2029    583               169635    59889    9065
 
     Using Slab Decomposition
 


     bravais-lattice index     =            0
     lattice parameter (alat)  =      11.0549  a.u.
     unit-cell volume          =     955.0197 (a.u.)^3
     number of atoms/cell      =            9
     number of atomic types    =            3
     number of electrons       =        66.00
     number of Kohn-Sham states=           40
     kinetic-energy cutoff     =      60.0000  Ry
     charge density cutoff     =     480.0000  Ry
     scf convergence threshold =      1.8E-09
     mixing beta               =       0.4000
     number of iterations used =            8  plain     mixing
     Exchange-correlation= PBESOL
                           (   1   4  10   8   0   0   0)

     GPU acceleration is ACTIVE.


     GPU used by master process:

        Device Number: 0
        Device name: Tesla P100-PCIE-16GB
        Compute capability : 60
        Ratio of single to double precision performance  : 2
        Memory Clock Rate (KHz): 715000
        Memory Bus Width (bits): 4096
        Peak Memory Bandwidth (GB/s): 732.16

     celldm(1)=  11.054898  celldm(2)=   0.000000  celldm(3)=   0.000000
     celldm(4)=   0.000000  celldm(5)=   0.000000  celldm(6)=   0.000000

     crystal axes: (cart. coord. in units of alat)
               a(1) = (   1.000000   0.000000   0.000000 )  
               a(2) = (  -0.500000   0.866025   0.000000 )  
               a(3) = (   0.000000   0.000000   0.816239 )  

     reciprocal axes: (cart. coord. in units 2 pi/alat)
               b(1) = (  1.000000  0.577350 -0.000000 )  
               b(2) = (  0.000000  1.154701  0.000000 )  
               b(3) = (  0.000000 -0.000000  1.225131 )  


     PseudoPot. # 1 for F  read from file:
     ./pseudo/f_pbesol_v1.4.uspp.F.UPF
     MD5 check sum: d2815ecb49b17b99c5724ffd2f9bbd8d
     Pseudo is Ultrasoft, Zval =  7.0
     Generated by new atomic code, or converted to UPF format
     Using radial grid of  799 points,  4 beta functions with: 
                l(1) =   0
                l(2) =   0
                l(3) =   1
                l(4) =   1
     Q(r) pseudized with  8 coefficients,  rinner =    0.950   0.950   0.950


     PseudoPot. # 2 for Ge read from file:
     ./pseudo/ge_pbesol_v1.4.uspp.F.UPF
     MD5 check sum: 7bed0412183f5e553a4d27ec7023354d
     Pseudo is Ultrasoft + core correction, Zval = 14.0
     Generated by new atomic code, or converted to UPF format
     Using radial grid of  873 points,  6 beta functions with: 
                l(1) =   0
                l(2) =   0
                l(3) =   1
                l(4) =   1
                l(5) =   2
                l(6) =   2
     Q(r) pseudized with  8 coefficients,  rinner =    1.400   1.400   1.400
                                                       1.400   1.400

     PseudoPot. # 3 for N  read from file:
     ./pseudo/N.pbesol-theos.UPF
     MD5 check sum: 1b64827339d390a5a22afef3ff345c9d
     Pseudo is Ultrasoft + core correction, Zval =  5.0
     Generated using "atomic" code by A. Dal Corso  v.5.1
     Using radial grid of 1085 points,  4 beta functions with: 
                l(1) =   0
                l(2) =   0
                l(3) =   1
                l(4) =   1
     Q(r) pseudized with 0 coefficients 


     atomic species   valence    mass     pseudopotential
        F              7.00    18.99840     F ( 1.00)
        Ge            14.00    72.64000     Ge( 1.00)
        N              5.00    14.00670     N ( 1.00)

     Starting magnetic structure 
     atomic species   magnetization
        F            0.100
        Ge           0.100
        N            0.100

     12 Sym. Ops., with inversion, found


                                    s                        frac. trans.

      isym =  1     identity                                     

 cryst.   s( 1) = (     1          0          0      )
                  (     0          1          0      )
                  (     0          0          1      )

 cart.    s( 1) = (  1.0000000  0.0000000  0.0000000 )
                  (  0.0000000  1.0000000  0.0000000 )
                  (  0.0000000  0.0000000  1.0000000 )


      isym =  2     180 deg rotation - cart. axis [1,0,0]        

 cryst.   s( 2) = (     1          0          0      )
                  (    -1         -1          0      )
                  (     0          0         -1      )

 cart.    s( 2) = (  1.0000000  0.0000000  0.0000000 )
                  (  0.0000000 -1.0000000  0.0000000 )
                  (  0.0000000  0.0000000 -1.0000000 )


      isym =  3     120 deg rotation - cryst. axis [0,0,1]       

 cryst.   s( 3) = (     0          1          0      )
                  (    -1         -1          0      )
                  (     0          0          1      )

 cart.    s( 3) = ( -0.5000000 -0.8660254  0.0000000 )
                  (  0.8660254 -0.5000000  0.0000000 )
                  (  0.0000000  0.0000000  1.0000000 )


      isym =  4     120 deg rotation - cryst. axis [0,0,-1]      

 cryst.   s( 4) = (    -1         -1          0      )
                  (     1          0          0      )
                  (     0          0          1      )

 cart.    s( 4) = ( -0.5000000  0.8660254  0.0000000 )
                  ( -0.8660254 -0.5000000  0.0000000 )
                  (  0.0000000  0.0000000  1.0000000 )


      isym =  5     180 deg rotation - cryst. axis [0,1,0]       

 cryst.   s( 5) = (    -1         -1          0      )
                  (     0          1          0      )
                  (     0          0         -1      )

 cart.    s( 5) = ( -0.5000000 -0.8660254  0.0000000 )
                  ( -0.8660254  0.5000000  0.0000000 )
                  (  0.0000000  0.0000000 -1.0000000 )


      isym =  6     180 deg rotation - cryst. axis [1,1,0]       

 cryst.   s( 6) = (     0          1          0      )
                  (     1          0          0      )
                  (     0          0         -1      )

 cart.    s( 6) = ( -0.5000000  0.8660254  0.0000000 )
                  (  0.8660254  0.5000000  0.0000000 )
                  (  0.0000000  0.0000000 -1.0000000 )


      isym =  7     inversion                                    

 cryst.   s( 7) = (    -1          0          0      )
                  (     0         -1          0      )
                  (     0          0         -1      )

 cart.    s( 7) = ( -1.0000000  0.0000000  0.0000000 )
                  (  0.0000000 -1.0000000  0.0000000 )
                  (  0.0000000  0.0000000 -1.0000000 )


      isym =  8     inv. 180 deg rotation - cart. axis [1,0,0]   

 cryst.   s( 8) = (    -1          0          0      )
                  (     1          1          0      )
                  (     0          0          1      )

 cart.    s( 8) = ( -1.0000000  0.0000000  0.0000000 )
                  (  0.0000000  1.0000000  0.0000000 )
                  (  0.0000000  0.0000000  1.0000000 )


      isym =  9     inv. 120 deg rotation - cryst. axis [0,0,1]  

 cryst.   s( 9) = (     0         -1          0      )
                  (     1          1          0      )
                  (     0          0         -1      )

 cart.    s( 9) = (  0.5000000  0.8660254  0.0000000 )
                  ( -0.8660254  0.5000000  0.0000000 )
                  (  0.0000000  0.0000000 -1.0000000 )


      isym = 10     inv. 120 deg rotation - cryst. axis [0,0,-1] 

 cryst.   s(10) = (     1          1          0      )
                  (    -1          0          0      )
                  (     0          0         -1      )

 cart.    s(10) = (  0.5000000 -0.8660254  0.0000000 )
                  (  0.8660254  0.5000000  0.0000000 )
                  (  0.0000000  0.0000000 -1.0000000 )


      isym = 11     inv. 180 deg rotation - cryst. axis [0,1,0]  

 cryst.   s(11) = (     1          1          0      )
                  (     0         -1          0      )
                  (     0          0          1      )

 cart.    s(11) = (  0.5000000  0.8660254  0.0000000 )
                  (  0.8660254 -0.5000000  0.0000000 )
                  (  0.0000000  0.0000000  1.0000000 )


      isym = 12     inv. 180 deg rotation - cryst. axis [1,1,0]  

 cryst.   s(12) = (     0         -1          0      )
                  (    -1          0          0      )
                  (     0          0          1      )

 cart.    s(12) = (  0.5000000 -0.8660254  0.0000000 )
                  ( -0.8660254 -0.5000000  0.0000000 )
                  (  0.0000000  0.0000000  1.0000000 )


   Cartesian axes

     site n.     atom                  positions (alat units)
         1           Ge  tau(   1) = (   0.0000000   0.0000000   0.0000000  )
         2           N   tau(   2) = (  -0.0000000   0.5773503   0.2489530  )
         3           N   tau(   3) = (   0.5000000   0.2886751   0.5672863  )
         4           F   tau(   4) = (   0.2145000   0.1238416   0.1746752  )
         5           F   tau(   5) = (   0.0000000   0.2476833   0.6415641  )
         6           F   tau(   6) = (  -0.2855000   0.7421838   0.6415641  )
         7           F   tau(   7) = (   0.7855000   0.1238416   0.1746752  )
         8           F   tau(   8) = (   0.5000000   0.6183421   0.1746752  )
         9           F   tau(   9) = (   0.2855000   0.7421838   0.6415641  )

   Crystallographic axes

     site n.     atom                  positions (cryst. coord.)
         1           Ge  tau(   1) = (  0.0000000  0.0000000  0.0000000  )
         2           N   tau(   2) = (  0.3333333  0.6666667  0.3050000  )
         3           N   tau(   3) = (  0.6666667  0.3333333  0.6950000  )
         4           F   tau(   4) = (  0.2860000  0.1430000  0.2140000  )
         5           F   tau(   5) = (  0.1430000  0.2860000  0.7860000  )
         6           F   tau(   6) = (  0.1430000  0.8570000  0.7860000  )
         7           F   tau(   7) = (  0.8570000  0.1430000  0.2140000  )
         8           F   tau(   8) = (  0.8570000  0.7140000  0.2140000  )
         9           F   tau(   9) = (  0.7140000  0.8570000  0.7860000  )

     number of k points=    88  Marzari-Vanderbilt smearing, width (Ry)=  0.0100
                       cart. coord. in units 2pi/alat
        k(    1) = (   0.0000000   0.0000000   0.0000000), wk =   0.0013717
        k(    2) = (   0.0000000   0.0000000   0.1361257), wk =   0.0027435
        k(    3) = (   0.0000000   0.0000000   0.2722513), wk =   0.0027435
        k(    4) = (   0.0000000   0.0000000   0.4083770), wk =   0.0027435
        k(    5) = (   0.0000000   0.0000000   0.5445026), wk =   0.0027435
        k(    6) = (   0.0000000   0.1283001   0.0000000), wk =   0.0082305
        k(    7) = (   0.0000000   0.1283001   0.1361257), wk =   0.0082305
        k(    8) = (   0.0000000   0.1283001   0.2722513), wk =   0.0082305
        k(    9) = (   0.0000000   0.1283001   0.4083770), wk =   0.0082305
        k(   10) = (   0.0000000   0.1283001   0.5445026), wk =   0.0082305
        k(   11) = (   0.0000000   0.2566001   0.0000000), wk =   0.0082305
        k(   12) = (   0.0000000   0.2566001   0.1361257), wk =   0.0082305
        k(   13) = (   0.0000000   0.2566001   0.2722513), wk =   0.0082305
        k(   14) = (   0.0000000   0.2566001   0.4083770), wk =   0.0082305
        k(   15) = (   0.0000000   0.2566001   0.5445026), wk =   0.0082305
        k(   16) = (   0.0000000   0.3849002   0.0000000), wk =   0.0082305
        k(   17) = (   0.0000000   0.3849002   0.1361257), wk =   0.0082305
        k(   18) = (   0.0000000   0.3849002   0.2722513), wk =   0.0082305
        k(   19) = (   0.0000000   0.3849002   0.4083770), wk =   0.0082305
        k(   20) = (   0.0000000   0.3849002   0.5445026), wk =   0.0082305
        k(   21) = (   0.0000000   0.5132002   0.0000000), wk =   0.0082305
        k(   22) = (   0.0000000   0.5132002   0.1361257), wk =   0.0082305
        k(   23) = (   0.0000000   0.5132002   0.2722513), wk =   0.0082305
        k(   24) = (   0.0000000   0.5132002   0.4083770), wk =   0.0082305
        k(   25) = (   0.0000000   0.5132002   0.5445026), wk =   0.0082305
        k(   26) = (   0.1111111   0.1924501   0.0000000), wk =   0.0082305
        k(   27) = (   0.1111111   0.1924501   0.1361257), wk =   0.0164609
        k(   28) = (   0.1111111   0.1924501   0.2722513), wk =   0.0164609
        k(   29) = (   0.1111111   0.1924501   0.4083770), wk =   0.0164609
        k(   30) = (   0.1111111   0.1924501   0.5445026), wk =   0.0164609
        k(   31) = (   0.1111111   0.3207501   0.0000000), wk =   0.0164609
        k(   32) = (   0.1111111   0.3207501   0.1361257), wk =   0.0164609
        k(   33) = (   0.1111111   0.3207501   0.2722513), wk =   0.0164609
        k(   34) = (   0.1111111   0.3207501   0.4083770), wk =   0.0164609
        k(   35) = (   0.1111111   0.3207501   0.5445026), wk =   0.0164609
        k(   36) = (   0.1111111   0.4490502   0.0000000), wk =   0.0164609
        k(   37) = (   0.1111111   0.4490502   0.1361257), wk =   0.0164609
        k(   38) = (   0.1111111   0.4490502   0.2722513), wk =   0.0164609
        k(   39) = (   0.1111111   0.4490502   0.4083770), wk =   0.0164609
        k(   40) = (   0.1111111   0.4490502   0.5445026), wk =   0.0164609
        k(   41) = (   0.1111111   0.5773503   0.0000000), wk =   0.0082305
        k(   42) = (   0.1111111   0.5773503   0.1361257), wk =   0.0164609
        k(   43) = (   0.1111111   0.5773503   0.2722513), wk =   0.0164609
        k(   44) = (   0.1111111   0.5773503   0.4083770), wk =   0.0164609
        k(   45) = (   0.1111111   0.5773503   0.5445026), wk =   0.0164609
        k(   46) = (   0.2222222   0.3849002   0.0000000), wk =   0.0082305
        k(   47) = (   0.2222222   0.3849002   0.1361257), wk =   0.0164609
        k(   48) = (   0.2222222   0.3849002   0.2722513), wk =   0.0164609
        k(   49) = (   0.2222222   0.3849002   0.4083770), wk =   0.0164609
        k(   50) = (   0.2222222   0.3849002   0.5445026), wk =   0.0164609
        k(   51) = (   0.2222222   0.5132002   0.0000000), wk =   0.0164609
        k(   52) = (   0.2222222   0.5132002   0.1361257), wk =   0.0164609
        k(   53) = (   0.2222222   0.5132002   0.2722513), wk =   0.0164609
        k(   54) = (   0.2222222   0.5132002   0.4083770), wk =   0.0164609
        k(   55) = (   0.2222222   0.5132002   0.5445026), wk =   0.0164609
        k(   56) = (   0.3333333   0.5773503   0.0000000), wk =   0.0027435
        k(   57) = (   0.3333333   0.5773503   0.1361257), wk =   0.0054870
        k(   58) = (   0.3333333   0.5773503   0.2722513), wk =   0.0054870
        k(   59) = (   0.3333333   0.5773503   0.4083770), wk =   0.0054870
        k(   60) = (   0.3333333   0.5773503   0.5445026), wk =   0.0054870
        k(   61) = (   0.0000000   0.1283001  -0.1361257), wk =   0.0082305
        k(   62) = (   0.0000000   0.1283001  -0.2722513), wk =   0.0082305
        k(   63) = (   0.0000000   0.1283001  -0.4083770), wk =   0.0082305
        k(   64) = (   0.0000000   0.1283001  -0.5445026), wk =   0.0082305
        k(   65) = (   0.0000000   0.2566001  -0.1361257), wk =   0.0082305
        k(   66) = (   0.0000000   0.2566001  -0.2722513), wk =   0.0082305
        k(   67) = (   0.0000000   0.2566001  -0.4083770), wk =   0.0082305
        k(   68) = (   0.0000000   0.2566001  -0.5445026), wk =   0.0082305
        k(   69) = (   0.0000000   0.3849002  -0.1361257), wk =   0.0082305
        k(   70) = (   0.0000000   0.3849002  -0.2722513), wk =   0.0082305
        k(   71) = (   0.0000000   0.3849002  -0.4083770), wk =   0.0082305
        k(   72) = (   0.0000000   0.3849002  -0.5445026), wk =   0.0082305
        k(   73) = (   0.0000000   0.5132002  -0.1361257), wk =   0.0082305
        k(   74) = (   0.0000000   0.5132002  -0.2722513), wk =   0.0082305
        k(   75) = (   0.0000000   0.5132002  -0.4083770), wk =   0.0082305
        k(   76) = (   0.0000000   0.5132002  -0.5445026), wk =   0.0082305
        k(   77) = (  -0.1111111   0.3207501  -0.1361257), wk =   0.0164609
        k(   78) = (  -0.1111111   0.3207501  -0.2722513), wk =   0.0164609
        k(   79) = (  -0.1111111   0.3207501  -0.4083770), wk =   0.0164609
        k(   80) = (  -0.1111111   0.3207501  -0.5445026), wk =   0.0164609
        k(   81) = (  -0.1111111   0.4490502  -0.1361257), wk =   0.0164609
        k(   82) = (  -0.1111111   0.4490502  -0.2722513), wk =   0.0164609
        k(   83) = (  -0.1111111   0.4490502  -0.4083770), wk =   0.0164609
        k(   84) = (  -0.1111111   0.4490502  -0.5445026), wk =   0.0164609
        k(   85) = (  -0.2222222   0.5132002  -0.1361257), wk =   0.0164609
        k(   86) = (  -0.2222222   0.5132002  -0.2722513), wk =   0.0164609
        k(   87) = (  -0.2222222   0.5132002  -0.4083770), wk =   0.0164609
        k(   88) = (  -0.2222222   0.5132002  -0.5445026), wk =   0.0164609

                       cryst. coord.
        k(    1) = (   0.0000000   0.0000000   0.0000000), wk =   0.0013717
        k(    2) = (   0.0000000   0.0000000   0.1111111), wk =   0.0027435
        k(    3) = (   0.0000000   0.0000000   0.2222222), wk =   0.0027435
        k(    4) = (   0.0000000   0.0000000   0.3333333), wk =   0.0027435
        k(    5) = (   0.0000000   0.0000000   0.4444444), wk =   0.0027435
        k(    6) = (   0.0000000   0.1111111   0.0000000), wk =   0.0082305
        k(    7) = (   0.0000000   0.1111111   0.1111111), wk =   0.0082305
        k(    8) = (   0.0000000   0.1111111   0.2222222), wk =   0.0082305
        k(    9) = (   0.0000000   0.1111111   0.3333333), wk =   0.0082305
        k(   10) = (   0.0000000   0.1111111   0.4444444), wk =   0.0082305
        k(   11) = (   0.0000000   0.2222222   0.0000000), wk =   0.0082305
        k(   12) = (   0.0000000   0.2222222   0.1111111), wk =   0.0082305
        k(   13) = (   0.0000000   0.2222222   0.2222222), wk =   0.0082305
        k(   14) = (   0.0000000   0.2222222   0.3333333), wk =   0.0082305
        k(   15) = (   0.0000000   0.2222222   0.4444444), wk =   0.0082305
        k(   16) = (   0.0000000   0.3333333   0.0000000), wk =   0.0082305
        k(   17) = (   0.0000000   0.3333333   0.1111111), wk =   0.0082305
        k(   18) = (   0.0000000   0.3333333   0.2222222), wk =   0.0082305
        k(   19) = (   0.0000000   0.3333333   0.3333333), wk =   0.0082305
        k(   20) = (   0.0000000   0.3333333   0.4444444), wk =   0.0082305
        k(   21) = (   0.0000000   0.4444444   0.0000000), wk =   0.0082305
        k(   22) = (   0.0000000   0.4444444   0.1111111), wk =   0.0082305
        k(   23) = (   0.0000000   0.4444444   0.2222222), wk =   0.0082305
        k(   24) = (   0.0000000   0.4444444   0.3333333), wk =   0.0082305
        k(   25) = (   0.0000000   0.4444444   0.4444444), wk =   0.0082305
        k(   26) = (   0.1111111   0.1111111   0.0000000), wk =   0.0082305
        k(   27) = (   0.1111111   0.1111111   0.1111111), wk =   0.0164609
        k(   28) = (   0.1111111   0.1111111   0.2222222), wk =   0.0164609
        k(   29) = (   0.1111111   0.1111111   0.3333333), wk =   0.0164609
        k(   30) = (   0.1111111   0.1111111   0.4444444), wk =   0.0164609
        k(   31) = (   0.1111111   0.2222222   0.0000000), wk =   0.0164609
        k(   32) = (   0.1111111   0.2222222   0.1111111), wk =   0.0164609
        k(   33) = (   0.1111111   0.2222222   0.2222222), wk =   0.0164609
        k(   34) = (   0.1111111   0.2222222   0.3333333), wk =   0.0164609
        k(   35) = (   0.1111111   0.2222222   0.4444444), wk =   0.0164609
        k(   36) = (   0.1111111   0.3333333   0.0000000), wk =   0.0164609
        k(   37) = (   0.1111111   0.3333333   0.1111111), wk =   0.0164609
        k(   38) = (   0.1111111   0.3333333   0.2222222), wk =   0.0164609
        k(   39) = (   0.1111111   0.3333333   0.3333333), wk =   0.0164609
        k(   40) = (   0.1111111   0.3333333   0.4444444), wk =   0.0164609
        k(   41) = (   0.1111111   0.4444444   0.0000000), wk =   0.0082305
        k(   42) = (   0.1111111   0.4444444   0.1111111), wk =   0.0164609
        k(   43) = (   0.1111111   0.4444444   0.2222222), wk =   0.0164609
        k(   44) = (   0.1111111   0.4444444   0.3333333), wk =   0.0164609
        k(   45) = (   0.1111111   0.4444444   0.4444444), wk =   0.0164609
        k(   46) = (   0.2222222   0.2222222   0.0000000), wk =   0.0082305
        k(   47) = (   0.2222222   0.2222222   0.1111111), wk =   0.0164609
        k(   48) = (   0.2222222   0.2222222   0.2222222), wk =   0.0164609
        k(   49) = (   0.2222222   0.2222222   0.3333333), wk =   0.0164609
        k(   50) = (   0.2222222   0.2222222   0.4444444), wk =   0.0164609
        k(   51) = (   0.2222222   0.3333333   0.0000000), wk =   0.0164609
        k(   52) = (   0.2222222   0.3333333   0.1111111), wk =   0.0164609
        k(   53) = (   0.2222222   0.3333333   0.2222222), wk =   0.0164609
        k(   54) = (   0.2222222   0.3333333   0.3333333), wk =   0.0164609
        k(   55) = (   0.2222222   0.3333333   0.4444444), wk =   0.0164609
        k(   56) = (   0.3333333   0.3333333   0.0000000), wk =   0.0027435
        k(   57) = (   0.3333333   0.3333333   0.1111111), wk =   0.0054870
        k(   58) = (   0.3333333   0.3333333   0.2222222), wk =   0.0054870
        k(   59) = (   0.3333333   0.3333333   0.3333333), wk =   0.0054870
        k(   60) = (   0.3333333   0.3333333   0.4444444), wk =   0.0054870
        k(   61) = (   0.0000000   0.1111111  -0.1111111), wk =   0.0082305
        k(   62) = (   0.0000000   0.1111111  -0.2222222), wk =   0.0082305
        k(   63) = (   0.0000000   0.1111111  -0.3333333), wk =   0.0082305
        k(   64) = (   0.0000000   0.1111111  -0.4444444), wk =   0.0082305
        k(   65) = (   0.0000000   0.2222222  -0.1111111), wk =   0.0082305
        k(   66) = (   0.0000000   0.2222222  -0.2222222), wk =   0.0082305
        k(   67) = (   0.0000000   0.2222222  -0.3333333), wk =   0.0082305
        k(   68) = (   0.0000000   0.2222222  -0.4444444), wk =   0.0082305
        k(   69) = (   0.0000000   0.3333333  -0.1111111), wk =   0.0082305
        k(   70) = (   0.0000000   0.3333333  -0.2222222), wk =   0.0082305
        k(   71) = (   0.0000000   0.3333333  -0.3333333), wk =   0.0082305
        k(   72) = (   0.0000000   0.3333333  -0.4444444), wk =   0.0082305
        k(   73) = (   0.0000000   0.4444444  -0.1111111), wk =   0.0082305
        k(   74) = (   0.0000000   0.4444444  -0.2222222), wk =   0.0082305
        k(   75) = (   0.0000000   0.4444444  -0.3333333), wk =   0.0082305
        k(   76) = (   0.0000000   0.4444444  -0.4444444), wk =   0.0082305
        k(   77) = (  -0.1111111   0.3333333  -0.1111111), wk =   0.0164609
        k(   78) = (  -0.1111111   0.3333333  -0.2222222), wk =   0.0164609
        k(   79) = (  -0.1111111   0.3333333  -0.3333333), wk =   0.0164609
        k(   80) = (  -0.1111111   0.3333333  -0.4444444), wk =   0.0164609
        k(   81) = (  -0.1111111   0.4444444  -0.1111111), wk =   0.0164609
        k(   82) = (  -0.1111111   0.4444444  -0.2222222), wk =   0.0164609
        k(   83) = (  -0.1111111   0.4444444  -0.3333333), wk =   0.0164609
        k(   84) = (  -0.1111111   0.4444444  -0.4444444), wk =   0.0164609
        k(   85) = (  -0.2222222   0.5555556  -0.1111111), wk =   0.0164609
        k(   86) = (  -0.2222222   0.5555556  -0.2222222), wk =   0.0164609
        k(   87) = (  -0.2222222   0.5555556  -0.3333333), wk =   0.0164609
        k(   88) = (  -0.2222222   0.5555556  -0.4444444), wk =   0.0164609

     Dense  grid:   169635 G-vectors     FFT dimensions: (  80,  80,  64)

     Smooth grid:    59889 G-vectors     FFT dimensions: (  60,  60,  45)

     Dynamical RAM for                 wfc:       4.57 MB

     Dynamical RAM for     wfc (w. buffer):     809.70 MB

     Dynamical RAM for           str. fact:       7.77 MB

     Dynamical RAM for           local pot:       0.00 MB

     Dynamical RAM for          nlocal pot:       9.38 MB

     Dynamical RAM for                qrad:       5.27 MB

     Dynamical RAM for          rho,v,vnew:      34.28 MB

     Dynamical RAM for               rhoin:      11.43 MB

     Dynamical RAM for            rho*nmix:      82.83 MB

     Dynamical RAM for           G-vectors:      10.16 MB

     Dynamical RAM for          h,s,v(r/c):       0.29 MB

     Dynamical RAM for          <psi|beta>:       0.05 MB

     Dynamical RAM for                 psi:       9.15 MB

     Dynamical RAM for                hpsi:       9.15 MB

     Dynamical RAM for                spsi:       9.15 MB

     Dynamical RAM for      wfcinit/wfcrot:       9.42 MB

     Dynamical RAM for           addusdens:     499.57 MB

     Dynamical RAM for          addusforce:     525.50 MB

     Dynamical RAM for         addusstress:     524.16 MB

     Estimated static dynamical RAM per process >     917.09 MB

     Estimated max dynamical RAM per process >       1.49 GB
     Generating pointlists ...
     new r_m :   0.1250 (alat units)  1.3821 (a.u.) for type    1
     new r_m :   0.1250 (alat units)  1.3821 (a.u.) for type    2
     new r_m :   0.2092 (alat units)  2.3127 (a.u.) for type    3

     Initial potential from superposition of free atoms

     starting charge      65.9992, renormalised to      66.0000
     Starting wfcs are   41 randomized atomic wfcs

     total cpu time spent up to now is        6.4 secs

     per-process dynamical memory:  1585.6 Mb

     Self-consistent Calculation
[tb_dev] Currently allocated     1.96E+00 Mbytes, locked:    0 /   8
[tb_pin] Currently allocated     0.00E+00 Mbytes, locked:    0 /   0

     iteration #  1     ecut=    60.00 Ry     beta= 0.40
     Davidson diagonalization with overlap

---- Real-time Memory Report at c_bands before calling an iterative solver
          1760 MiB given to the printing process from OS
          1561 MiB allocation reported by mallinfo(arena+hblkhd)
         58269 MiB available memory on the node where the printing process lives
     GPU memory used/free/total (MiB): 1074 / 15206 / 16280
------------------
     ethr =  1.00E-02,  avg # of iterations =  4.2

     total cpu time spent up to now is       13.7 secs

     total energy              =    -542.90626267 Ry
     estimated scf accuracy    <       2.09301214 Ry

     total magnetization       =     4.00 Bohr mag/cell
     absolute magnetization    =     4.34 Bohr mag/cell
[tb_dev] Currently allocated     1.96E+00 Mbytes, locked:    0 /   6
[tb_pin] Currently allocated     0.00E+00 Mbytes, locked:    0 /   0

     iteration #  2     ecut=    60.00 Ry     beta= 0.40
     Davidson diagonalization with overlap

---- Real-time Memory Report at c_bands before calling an iterative solver
          1817 MiB given to the printing process from OS
          1598 MiB allocation reported by mallinfo(arena+hblkhd)
         58237 MiB available memory on the node where the printing process lives
     GPU memory used/free/total (MiB): 1744 / 14536 / 16280
------------------
     ethr =  3.17E-03,  avg # of iterations =  2.2

     total cpu time spent up to now is       20.4 secs

     total energy              =    -541.53321584 Ry
     estimated scf accuracy    <      15.18855875 Ry

     total magnetization       =     5.73 Bohr mag/cell
     absolute magnetization    =     5.80 Bohr mag/cell
[tb_dev] Currently allocated     1.96E+00 Mbytes, locked:    0 /   6
[tb_pin] Currently allocated     0.00E+00 Mbytes, locked:    0 /   0

     iteration #  3     ecut=    60.00 Ry     beta= 0.40
     Davidson diagonalization with overlap

---- Real-time Memory Report at c_bands before calling an iterative solver
          1821 MiB given to the printing process from OS
          1602 MiB allocation reported by mallinfo(arena+hblkhd)
         58235 MiB available memory on the node where the printing process lives
     GPU memory used/free/total (MiB): 1830 / 14450 / 16280
------------------
     ethr =  3.17E-03,  avg # of iterations =  2.0

     total cpu time spent up to now is       26.3 secs

     total energy              =    -543.60275610 Ry
     estimated scf accuracy    <       1.00110543 Ry

     total magnetization       =     4.00 Bohr mag/cell
     absolute magnetization    =     4.26 Bohr mag/cell
[tb_dev] Currently allocated     1.96E+00 Mbytes, locked:    0 /   6
[tb_pin] Currently allocated     0.00E+00 Mbytes, locked:    0 /   0

     iteration #  4     ecut=    60.00 Ry     beta= 0.40
     Davidson diagonalization with overlap

---- Real-time Memory Report at c_bands before calling an iterative solver
          1825 MiB given to the printing process from OS
          1605 MiB allocation reported by mallinfo(arena+hblkhd)
         58232 MiB available memory on the node where the printing process lives
     GPU memory used/free/total (MiB): 1860 / 14420 / 16280
------------------
     ethr =  1.52E-03,  avg # of iterations =  1.0

     total cpu time spent up to now is       31.4 secs

     total energy              =    -543.46225442 Ry
     estimated scf accuracy    <       0.66324079 Ry

     total magnetization       =     4.00 Bohr mag/cell
     absolute magnetization    =     4.23 Bohr mag/cell
[tb_dev] Currently allocated     1.96E+00 Mbytes, locked:    0 /   6
[tb_pin] Currently allocated     0.00E+00 Mbytes, locked:    0 /   0

     iteration #  5     ecut=    60.00 Ry     beta= 0.40
     Davidson diagonalization with overlap

---- Real-time Memory Report at c_bands before calling an iterative solver
          1831 MiB given to the printing process from OS
          1611 MiB allocation reported by mallinfo(arena+hblkhd)
         58228 MiB available memory on the node where the printing process lives
     GPU memory used/free/total (MiB): 1860 / 14420 / 16280
------------------
     ethr =  1.00E-03,  avg # of iterations =  1.5

     total cpu time spent up to now is       37.0 secs

     total energy              =    -543.64599856 Ry
     estimated scf accuracy    <       0.52346452 Ry

     total magnetization       =     8.42 Bohr mag/cell
     absolute magnetization    =     8.44 Bohr mag/cell
[tb_dev] Currently allocated     1.96E+00 Mbytes, locked:    0 /   6
[tb_pin] Currently allocated     0.00E+00 Mbytes, locked:    0 /   0

     iteration #  6     ecut=    60.00 Ry     beta= 0.40
     Davidson diagonalization with overlap

---- Real-time Memory Report at c_bands before calling an iterative solver
          1833 MiB given to the printing process from OS
          1613 MiB allocation reported by mallinfo(arena+hblkhd)
         58227 MiB available memory on the node where the printing process lives
     GPU memory used/free/total (MiB): 1860 / 14420 / 16280
------------------
     ethr =  7.93E-04,  avg # of iterations =  1.0

     total cpu time spent up to now is       42.1 secs

     total energy              =    -543.65350281 Ry
     estimated scf accuracy    <       0.50900280 Ry

     total magnetization       =     8.40 Bohr mag/cell
     absolute magnetization    =     8.42 Bohr mag/cell
[tb_dev] Currently allocated     1.96E+00 Mbytes, locked:    0 /   6
[tb_pin] Currently allocated     0.00E+00 Mbytes, locked:    0 /   0

     iteration #  7     ecut=    60.00 Ry     beta= 0.40
     Davidson diagonalization with overlap

---- Real-time Memory Report at c_bands before calling an iterative solver
          1840 MiB given to the printing process from OS
          1620 MiB allocation reported by mallinfo(arena+hblkhd)
         58219 MiB available memory on the node where the printing process lives
     GPU memory used/free/total (MiB): 1860 / 14420 / 16280
------------------
     ethr =  7.71E-04,  avg # of iterations =  1.0

     total cpu time spent up to now is       47.3 secs

     total energy              =    -543.61658662 Ry
     estimated scf accuracy    <       0.35447379 Ry

     total magnetization       =     8.15 Bohr mag/cell
     absolute magnetization    =     8.18 Bohr mag/cell
[tb_dev] Currently allocated     1.96E+00 Mbytes, locked:    0 /   6
[tb_pin] Currently allocated     0.00E+00 Mbytes, locked:    0 /   0

     iteration #  8     ecut=    60.00 Ry     beta= 0.40
     Davidson diagonalization with overlap

---- Real-time Memory Report at c_bands before calling an iterative solver
          1844 MiB given to the printing process from OS
          1624 MiB allocation reported by mallinfo(arena+hblkhd)
         58217 MiB available memory on the node where the printing process lives
     GPU memory used/free/total (MiB): 1860 / 14420 / 16280
------------------
     ethr =  5.37E-04,  avg # of iterations =  1.5

     total cpu time spent up to now is       52.8 secs

     total energy              =    -543.60137996 Ry
     estimated scf accuracy    <       0.18687137 Ry

     total magnetization       =     8.08 Bohr mag/cell
     absolute magnetization    =     8.13 Bohr mag/cell
[tb_dev] Currently allocated     1.96E+00 Mbytes, locked:    0 /   6
[tb_pin] Currently allocated     0.00E+00 Mbytes, locked:    0 /   0

     iteration #  9     ecut=    60.00 Ry     beta= 0.40
     Davidson diagonalization with overlap

---- Real-time Memory Report at c_bands before calling an iterative solver
          1847 MiB given to the printing process from OS
          1628 MiB allocation reported by mallinfo(arena+hblkhd)
         58214 MiB available memory on the node where the printing process lives
     GPU memory used/free/total (MiB): 1860 / 14420 / 16280
------------------
     ethr =  2.83E-04,  avg # of iterations =  1.0

     total cpu time spent up to now is       58.0 secs

     total energy              =    -543.61871669 Ry
     estimated scf accuracy    <       0.24202612 Ry

     total magnetization       =     4.61 Bohr mag/cell
     absolute magnetization    =     4.85 Bohr mag/cell
[tb_dev] Currently allocated     1.96E+00 Mbytes, locked:    0 /   6
[tb_pin] Currently allocated     0.00E+00 Mbytes, locked:    0 /   0

     iteration # 10     ecut=    60.00 Ry     beta= 0.40
     Davidson diagonalization with overlap

---- Real-time Memory Report at c_bands before calling an iterative solver
          1847 MiB given to the printing process from OS
          1628 MiB allocation reported by mallinfo(arena+hblkhd)
         58214 MiB available memory on the node where the printing process lives
     GPU memory used/free/total (MiB): 1860 / 14420 / 16280
------------------
     ethr =  2.83E-04,  avg # of iterations =  1.0

     total cpu time spent up to now is       63.1 secs

     total energy              =    -543.62044550 Ry
     estimated scf accuracy    <       0.23737647 Ry

     total magnetization       =     4.63 Bohr mag/cell
     absolute magnetization    =     4.86 Bohr mag/cell
[tb_dev] Currently allocated     1.96E+00 Mbytes, locked:    0 /   6
[tb_pin] Currently allocated     0.00E+00 Mbytes, locked:    0 /   0

     iteration # 11     ecut=    60.00 Ry     beta= 0.40
     Davidson diagonalization with overlap

---- Real-time Memory Report at c_bands before calling an iterative solver
          1851 MiB given to the printing process from OS
          1628 MiB allocation reported by mallinfo(arena+hblkhd)
         58214 MiB available memory on the node where the printing process lives
     GPU memory used/free/total (MiB): 1860 / 14420 / 16280
------------------
     ethr =  2.83E-04,  avg # of iterations =  1.0

     total cpu time spent up to now is       68.3 secs

     total energy              =    -543.58798168 Ry
     estimated scf accuracy    <       0.37491470 Ry

     total magnetization       =     4.21 Bohr mag/cell
     absolute magnetization    =     4.59 Bohr mag/cell
[tb_dev] Currently allocated     1.96E+00 Mbytes, locked:    0 /   6
[tb_pin] Currently allocated     0.00E+00 Mbytes, locked:    0 /   0

     iteration # 12     ecut=    60.00 Ry     beta= 0.40
     Davidson diagonalization with overlap

---- Real-time Memory Report at c_bands before calling an iterative solver
          1851 MiB given to the printing process from OS
          1628 MiB allocation reported by mallinfo(arena+hblkhd)
         58214 MiB available memory on the node where the printing process lives
     GPU memory used/free/total (MiB): 1860 / 14420 / 16280
------------------
     ethr =  2.83E-04,  avg # of iterations =  1.0

     total cpu time spent up to now is       73.5 secs

     total energy              =    -543.63959507 Ry
     estimated scf accuracy    <       0.24835255 Ry

     total magnetization       =     8.31 Bohr mag/cell
     absolute magnetization    =     8.36 Bohr mag/cell
[tb_dev] Currently allocated     1.96E+00 Mbytes, locked:    0 /   6
[tb_pin] Currently allocated     0.00E+00 Mbytes, locked:    0 /   0

     iteration # 13     ecut=    60.00 Ry     beta= 0.40
     Davidson diagonalization with overlap

---- Real-time Memory Report at c_bands before calling an iterative solver
          1851 MiB given to the printing process from OS
          1628 MiB allocation reported by mallinfo(arena+hblkhd)
         58214 MiB available memory on the node where the printing process lives
     GPU memory used/free/total (MiB): 1860 / 14420 / 16280
------------------
     ethr =  2.83E-04,  avg # of iterations =  1.0

     total cpu time spent up to now is       78.6 secs

     total energy              =    -543.64343953 Ry
     estimated scf accuracy    <       0.24550520 Ry

     total magnetization       =     8.23 Bohr mag/cell
     absolute magnetization    =     8.27 Bohr mag/cell
[tb_dev] Currently allocated     1.96E+00 Mbytes, locked:    0 /   6
[tb_pin] Currently allocated     0.00E+00 Mbytes, locked:    0 /   0

     iteration # 14     ecut=    60.00 Ry     beta= 0.40
     Davidson diagonalization with overlap

---- Real-time Memory Report at c_bands before calling an iterative solver
          1851 MiB given to the printing process from OS
          1628 MiB allocation reported by mallinfo(arena+hblkhd)
         58215 MiB available memory on the node where the printing process lives
     GPU memory used/free/total (MiB): 1860 / 14420 / 16280
------------------
     ethr =  2.83E-04,  avg # of iterations =  1.0

     total cpu time spent up to now is       83.8 secs

     total energy              =    -543.62822640 Ry
     estimated scf accuracy    <       0.24055770 Ry

     total magnetization       =     8.15 Bohr mag/cell
     absolute magnetization    =     8.19 Bohr mag/cell
[tb_dev] Currently allocated     1.96E+00 Mbytes, locked:    0 /   6
[tb_pin] Currently allocated     0.00E+00 Mbytes, locked:    0 /   0

     iteration # 15     ecut=    60.00 Ry     beta= 0.40
     Davidson diagonalization with overlap

---- Real-time Memory Report at c_bands before calling an iterative solver
          1851 MiB given to the printing process from OS
          1628 MiB allocation reported by mallinfo(arena+hblkhd)
         58215 MiB available memory on the node where the printing process lives
     GPU memory used/free/total (MiB): 1860 / 14420 / 16280
------------------
     ethr =  2.83E-04,  avg # of iterations =  1.0

     total cpu time spent up to now is       89.0 secs

     total energy              =    -543.64596397 Ry
     estimated scf accuracy    <       0.23469843 Ry

     total magnetization       =     8.18 Bohr mag/cell
     absolute magnetization    =     8.21 Bohr mag/cell
[tb_dev] Currently allocated     1.96E+00 Mbytes, locked:    0 /   6
[tb_pin] Currently allocated     0.00E+00 Mbytes, locked:    0 /   0

     iteration # 16     ecut=    60.00 Ry     beta= 0.40
     Davidson diagonalization with overlap

---- Real-time Memory Report at c_bands before calling an iterative solver
          1851 MiB given to the printing process from OS
          1628 MiB allocation reported by mallinfo(arena+hblkhd)
         58215 MiB available memory on the node where the printing process lives
     GPU memory used/free/total (MiB): 1860 / 14420 / 16280
------------------
     ethr =  2.83E-04,  avg # of iterations =  1.1

     total cpu time spent up to now is       94.2 secs

     total energy              =    -543.64848387 Ry
     estimated scf accuracy    <       0.26654624 Ry

     total magnetization       =     8.21 Bohr mag/cell
     absolute magnetization    =     8.24 Bohr mag/cell
[tb_dev] Currently allocated     1.96E+00 Mbytes, locked:    0 /   6
[tb_pin] Currently allocated     0.00E+00 Mbytes, locked:    0 /   0

     iteration # 17     ecut=    60.00 Ry     beta= 0.40
     Davidson diagonalization with overlap

---- Real-time Memory Report at c_bands before calling an iterative solver
          1851 MiB given to the printing process from OS
          1628 MiB allocation reported by mallinfo(arena+hblkhd)
         58190 MiB available memory on the node where the printing process lives
     GPU memory used/free/total (MiB): 1860 / 14420 / 16280
------------------
     ethr =  2.83E-04,  avg # of iterations =  1.0

     total cpu time spent up to now is       99.4 secs

     total energy              =    -543.65021159 Ry
     estimated scf accuracy    <       0.26598698 Ry

     total magnetization       =     8.19 Bohr mag/cell
     absolute magnetization    =     8.22 Bohr mag/cell
[tb_dev] Currently allocated     1.96E+00 Mbytes, locked:    0 /   6
[tb_pin] Currently allocated     0.00E+00 Mbytes, locked:    0 /   0

     iteration # 18     ecut=    60.00 Ry     beta= 0.40
     Davidson diagonalization with overlap

---- Real-time Memory Report at c_bands before calling an iterative solver
          1851 MiB given to the printing process from OS
          1628 MiB allocation reported by mallinfo(arena+hblkhd)
         58194 MiB available memory on the node where the printing process lives
     GPU memory used/free/total (MiB): 1860 / 14420 / 16280
------------------
     ethr =  2.83E-04,  avg # of iterations =  1.0

     total cpu time spent up to now is      104.6 secs

     total energy              =    -543.61225151 Ry
     estimated scf accuracy    <       0.27653658 Ry

     total magnetization       =     8.26 Bohr mag/cell
     absolute magnetization    =     8.29 Bohr mag/cell
[tb_dev] Currently allocated     1.96E+00 Mbytes, locked:    0 /   6
[tb_pin] Currently allocated     0.00E+00 Mbytes, locked:    0 /   0

     iteration # 19     ecut=    60.00 Ry     beta= 0.40
     Davidson diagonalization with overlap

---- Real-time Memory Report at c_bands before calling an iterative solver
          1851 MiB given to the printing process from OS
          1628 MiB allocation reported by mallinfo(arena+hblkhd)
         58201 MiB available memory on the node where the printing process lives
     GPU memory used/free/total (MiB): 1860 / 14420 / 16280
------------------
     ethr =  2.83E-04,  avg # of iterations =  1.1

     total cpu time spent up to now is      109.8 secs

     total energy              =    -543.61813755 Ry
     estimated scf accuracy    <       0.01005959 Ry

     total magnetization       =     6.54 Bohr mag/cell
     absolute magnetization    =     6.60 Bohr mag/cell
[tb_dev] Currently allocated     1.96E+00 Mbytes, locked:    0 /   6
[tb_pin] Currently allocated     0.00E+00 Mbytes, locked:    0 /   0

     iteration # 20     ecut=    60.00 Ry     beta= 0.40
     Davidson diagonalization with overlap

---- Real-time Memory Report at c_bands before calling an iterative solver
          1851 MiB given to the printing process from OS
          1628 MiB allocation reported by mallinfo(arena+hblkhd)
         58204 MiB available memory on the node where the printing process lives
     GPU memory used/free/total (MiB): 1860 / 14420 / 16280
------------------
     ethr =  1.52E-05,  avg # of iterations =  3.4

     total cpu time spent up to now is      116.5 secs

     total energy              =    -543.62164852 Ry
     estimated scf accuracy    <       0.04107443 Ry

     total magnetization       =     6.99 Bohr mag/cell
     absolute magnetization    =     7.05 Bohr mag/cell
[tb_dev] Currently allocated     1.96E+00 Mbytes, locked:    0 /   6
[tb_pin] Currently allocated     0.00E+00 Mbytes, locked:    0 /   0

     iteration # 21     ecut=    60.00 Ry     beta= 0.40
     Davidson diagonalization with overlap

---- Real-time Memory Report at c_bands before calling an iterative solver
          1851 MiB given to the printing process from OS
          1628 MiB allocation reported by mallinfo(arena+hblkhd)
         58205 MiB available memory on the node where the printing process lives
     GPU memory used/free/total (MiB): 1860 / 14420 / 16280
------------------
     ethr =  1.52E-05,  avg # of iterations =  1.0

     total cpu time spent up to now is      121.7 secs

     total energy              =    -543.62791772 Ry
     estimated scf accuracy    <       0.13295613 Ry

     total magnetization       =     7.61 Bohr mag/cell
     absolute magnetization    =     7.65 Bohr mag/cell
[tb_dev] Currently allocated     1.96E+00 Mbytes, locked:    0 /   6
[tb_pin] Currently allocated     0.00E+00 Mbytes, locked:    0 /   0

     iteration # 22     ecut=    60.00 Ry     beta= 0.40
     Davidson diagonalization with overlap

---- Real-time Memory Report at c_bands before calling an iterative solver
          1851 MiB given to the printing process from OS
          1628 MiB allocation reported by mallinfo(arena+hblkhd)
         58206 MiB available memory on the node where the printing process lives
     GPU memory used/free/total (MiB): 1860 / 14420 / 16280
------------------
     ethr =  1.52E-05,  avg # of iterations =  1.1

     total cpu time spent up to now is      126.9 secs

     total energy              =    -543.61869081 Ry
     estimated scf accuracy    <       0.21867309 Ry

     total magnetization       =     8.07 Bohr mag/cell
     absolute magnetization    =     8.10 Bohr mag/cell
[tb_dev] Currently allocated     1.96E+00 Mbytes, locked:    0 /   6
[tb_pin] Currently allocated     0.00E+00 Mbytes, locked:    0 /   0

     iteration # 23     ecut=    60.00 Ry     beta= 0.40
     Davidson diagonalization with overlap

---- Real-time Memory Report at c_bands before calling an iterative solver
          1851 MiB given to the printing process from OS
          1628 MiB allocation reported by mallinfo(arena+hblkhd)
         58206 MiB available memory on the node where the printing process lives
     GPU memory used/free/total (MiB): 1860 / 14420 / 16280
------------------
     ethr =  1.52E-05,  avg # of iterations =  1.0

     total cpu time spent up to now is      132.1 secs

     total energy              =    -543.61889301 Ry
     estimated scf accuracy    <       0.06849835 Ry

     total magnetization       =     7.11 Bohr mag/cell
     absolute magnetization    =     7.15 Bohr mag/cell
[tb_dev] Currently allocated     1.96E+00 Mbytes, locked:    0 /   6
[tb_pin] Currently allocated     0.00E+00 Mbytes, locked:    0 /   0

     iteration # 24     ecut=    60.00 Ry     beta= 0.40
     Davidson diagonalization with overlap

---- Real-time Memory Report at c_bands before calling an iterative solver
          1851 MiB given to the printing process from OS
          1628 MiB allocation reported by mallinfo(arena+hblkhd)
         58207 MiB available memory on the node where the printing process lives
     GPU memory used/free/total (MiB): 1860 / 14420 / 16280
------------------
     ethr =  1.52E-05,  avg # of iterations =  1.0

     total cpu time spent up to now is      137.2 secs

     total energy              =    -543.61923425 Ry
     estimated scf accuracy    <       0.02587385 Ry

     total magnetization       =     6.62 Bohr mag/cell
     absolute magnetization    =     6.67 Bohr mag/cell
[tb_dev] Currently allocated     1.96E+00 Mbytes, locked:    0 /   6
[tb_pin] Currently allocated     0.00E+00 Mbytes, locked:    0 /   0

     iteration # 25     ecut=    60.00 Ry     beta= 0.40
     Davidson diagonalization with overlap

---- Real-time Memory Report at c_bands before calling an iterative solver
          1851 MiB given to the printing process from OS
          1628 MiB allocation reported by mallinfo(arena+hblkhd)
         58208 MiB available memory on the node where the printing process lives
     GPU memory used/free/total (MiB): 1860 / 14420 / 16280
------------------
     ethr =  1.52E-05,  avg # of iterations =  1.0

     total cpu time spent up to now is      142.4 secs

     total energy              =    -543.61997404 Ry
     estimated scf accuracy    <       0.01818966 Ry

     total magnetization       =     6.45 Bohr mag/cell
     absolute magnetization    =     6.49 Bohr mag/cell
[tb_dev] Currently allocated     1.96E+00 Mbytes, locked:    0 /   6
[tb_pin] Currently allocated     0.00E+00 Mbytes, locked:    0 /   0

     iteration # 26     ecut=    60.00 Ry     beta= 0.40
     Davidson diagonalization with overlap

---- Real-time Memory Report at c_bands before calling an iterative solver
          1851 MiB given to the printing process from OS
          1628 MiB allocation reported by mallinfo(arena+hblkhd)
         58209 MiB available memory on the node where the printing process lives
     GPU memory used/free/total (MiB): 1860 / 14420 / 16280
------------------
     ethr =  1.52E-05,  avg # of iterations =  1.0

     total cpu time spent up to now is      147.6 secs

     total energy              =    -543.62097457 Ry
     estimated scf accuracy    <       0.03859068 Ry

     total magnetization       =     6.69 Bohr mag/cell
     absolute magnetization    =     6.73 Bohr mag/cell
[tb_dev] Currently allocated     1.96E+00 Mbytes, locked:    0 /   6
[tb_pin] Currently allocated     0.00E+00 Mbytes, locked:    0 /   0

     iteration # 27     ecut=    60.00 Ry     beta= 0.40
     Davidson diagonalization with overlap

---- Real-time Memory Report at c_bands before calling an iterative solver
          1851 MiB given to the printing process from OS
          1628 MiB allocation reported by mallinfo(arena+hblkhd)
         58208 MiB available memory on the node where the printing process lives
     GPU memory used/free/total (MiB): 1860 / 14420 / 16280
------------------
     ethr =  1.52E-05,  avg # of iterations =  1.0

     total cpu time spent up to now is      152.7 secs

     total energy              =    -543.62047373 Ry
     estimated scf accuracy    <       0.05560090 Ry

     total magnetization       =     6.80 Bohr mag/cell
     absolute magnetization    =     6.83 Bohr mag/cell
[tb_dev] Currently allocated     1.96E+00 Mbytes, locked:    0 /   6
[tb_pin] Currently allocated     0.00E+00 Mbytes, locked:    0 /   0

     iteration # 28     ecut=    60.00 Ry     beta= 0.40
     Davidson diagonalization with overlap

---- Real-time Memory Report at c_bands before calling an iterative solver
          1851 MiB given to the printing process from OS
          1628 MiB allocation reported by mallinfo(arena+hblkhd)
         58209 MiB available memory on the node where the printing process lives
     GPU memory used/free/total (MiB): 1860 / 14420 / 16280
------------------
     ethr =  1.52E-05,  avg # of iterations =  1.0

     total cpu time spent up to now is      157.9 secs

     total energy              =    -543.62115995 Ry
     estimated scf accuracy    <       0.04502502 Ry

     total magnetization       =     6.73 Bohr mag/cell
     absolute magnetization    =     6.77 Bohr mag/cell
[tb_dev] Currently allocated     1.96E+00 Mbytes, locked:    0 /   6
[tb_pin] Currently allocated     0.00E+00 Mbytes, locked:    0 /   0

     iteration # 29     ecut=    60.00 Ry     beta= 0.40
     Davidson diagonalization with overlap

---- Real-time Memory Report at c_bands before calling an iterative solver
          1851 MiB given to the printing process from OS
          1628 MiB allocation reported by mallinfo(arena+hblkhd)
         58209 MiB available memory on the node where the printing process lives
     GPU memory used/free/total (MiB): 1860 / 14420 / 16280
------------------
     ethr =  1.52E-05,  avg # of iterations =  1.0

     total cpu time spent up to now is      163.1 secs

     total energy              =    -543.61862764 Ry
     estimated scf accuracy    <       0.06234316 Ry

     total magnetization       =     6.89 Bohr mag/cell
     absolute magnetization    =     6.92 Bohr mag/cell
[tb_dev] Currently allocated     1.96E+00 Mbytes, locked:    0 /   6
[tb_pin] Currently allocated     0.00E+00 Mbytes, locked:    0 /   0

     iteration # 30     ecut=    60.00 Ry     beta= 0.40
     Davidson diagonalization with overlap

---- Real-time Memory Report at c_bands before calling an iterative solver
          1851 MiB given to the printing process from OS
          1628 MiB allocation reported by mallinfo(arena+hblkhd)
         58210 MiB available memory on the node where the printing process lives
     GPU memory used/free/total (MiB): 1860 / 14420 / 16280
------------------
     ethr =  1.52E-05,  avg # of iterations =  1.0

     total cpu time spent up to now is      168.3 secs

     total energy              =    -543.61850924 Ry
     estimated scf accuracy    <       0.01375885 Ry

     total magnetization       =     6.06 Bohr mag/cell
     absolute magnetization    =     6.17 Bohr mag/cell
[tb_dev] Currently allocated     1.96E+00 Mbytes, locked:    0 /   6
[tb_pin] Currently allocated     0.00E+00 Mbytes, locked:    0 /   0

     iteration # 31     ecut=    60.00 Ry     beta= 0.40
     Davidson diagonalization with overlap

---- Real-time Memory Report at c_bands before calling an iterative solver
          1851 MiB given to the printing process from OS
          1628 MiB allocation reported by mallinfo(arena+hblkhd)
         58210 MiB available memory on the node where the printing process lives
     GPU memory used/free/total (MiB): 1860 / 14420 / 16280
------------------
     ethr =  1.52E-05,  avg # of iterations =  1.0

     total cpu time spent up to now is      173.5 secs

     total energy              =    -543.61834341 Ry
     estimated scf accuracy    <       0.01354470 Ry

     total magnetization       =     6.36 Bohr mag/cell
     absolute magnetization    =     6.40 Bohr mag/cell
[tb_dev] Currently allocated     1.96E+00 Mbytes, locked:    0 /   6
[tb_pin] Currently allocated     0.00E+00 Mbytes, locked:    0 /   0

     iteration # 32     ecut=    60.00 Ry     beta= 0.40
     Davidson diagonalization with overlap

---- Real-time Memory Report at c_bands before calling an iterative solver
          1851 MiB given to the printing process from OS
          1628 MiB allocation reported by mallinfo(arena+hblkhd)
         58210 MiB available memory on the node where the printing process lives
     GPU memory used/free/total (MiB): 1860 / 14420 / 16280
------------------
     ethr =  1.52E-05,  avg # of iterations =  1.0

     total cpu time spent up to now is      178.6 secs

     total energy              =    -543.61879639 Ry
     estimated scf accuracy    <       0.00114800 Ry

     total magnetization       =     5.61 Bohr mag/cell
     absolute magnetization    =     5.81 Bohr mag/cell
[tb_dev] Currently allocated     1.96E+00 Mbytes, locked:    0 /   6
[tb_pin] Currently allocated     0.00E+00 Mbytes, locked:    0 /   0

     iteration # 33     ecut=    60.00 Ry     beta= 0.40
     Davidson diagonalization with overlap

---- Real-time Memory Report at c_bands before calling an iterative solver
          1851 MiB given to the printing process from OS
          1628 MiB allocation reported by mallinfo(arena+hblkhd)
         58210 MiB available memory on the node where the printing process lives
     GPU memory used/free/total (MiB): 1860 / 14420 / 16280
------------------
     ethr =  1.74E-06,  avg # of iterations =  2.8

     total cpu time spent up to now is      186.0 secs

     total energy              =    -543.61399662 Ry
     estimated scf accuracy    <       0.00471263 Ry

     total magnetization       =     5.43 Bohr mag/cell
     absolute magnetization    =     5.93 Bohr mag/cell
[tb_dev] Currently allocated     1.96E+00 Mbytes, locked:    0 /   6
[tb_pin] Currently allocated     0.00E+00 Mbytes, locked:    0 /   0

     iteration # 34     ecut=    60.00 Ry     beta= 0.40
     Davidson diagonalization with overlap

---- Real-time Memory Report at c_bands before calling an iterative solver
          1851 MiB given to the printing process from OS
          1628 MiB allocation reported by mallinfo(arena+hblkhd)
         58211 MiB available memory on the node where the printing process lives
     GPU memory used/free/total (MiB): 1930 / 14350 / 16280
------------------
     ethr =  1.74E-06,  avg # of iterations =  2.5

     total cpu time spent up to now is      193.5 secs

     total energy              =    -543.61831049 Ry
     estimated scf accuracy    <       0.00132563 Ry

     total magnetization       =     6.08 Bohr mag/cell
     absolute magnetization    =     6.14 Bohr mag/cell
[tb_dev] Currently allocated     1.96E+00 Mbytes, locked:    0 /   6
[tb_pin] Currently allocated     0.00E+00 Mbytes, locked:    0 /   0

     iteration # 35     ecut=    60.00 Ry     beta= 0.40
     Davidson diagonalization with overlap

---- Real-time Memory Report at c_bands before calling an iterative solver
          1851 MiB given to the printing process from OS
          1628 MiB allocation reported by mallinfo(arena+hblkhd)
         58212 MiB available memory on the node where the printing process lives
     GPU memory used/free/total (MiB): 1930 / 14350 / 16280
------------------
     ethr =  1.74E-06,  avg # of iterations =  2.0

     total cpu time spent up to now is      200.0 secs

     total energy              =    -543.61762118 Ry
     estimated scf accuracy    <       0.00036426 Ry

     total magnetization       =     5.63 Bohr mag/cell
     absolute magnetization    =     5.87 Bohr mag/cell
[tb_dev] Currently allocated     1.96E+00 Mbytes, locked:    0 /   6
[tb_pin] Currently allocated     0.00E+00 Mbytes, locked:    0 /   0

     iteration # 36     ecut=    60.00 Ry     beta= 0.40
     Davidson diagonalization with overlap

---- Real-time Memory Report at c_bands before calling an iterative solver
          1851 MiB given to the printing process from OS
          1628 MiB allocation reported by mallinfo(arena+hblkhd)
         58212 MiB available memory on the node where the printing process lives
     GPU memory used/free/total (MiB): 1930 / 14350 / 16280
------------------
     ethr =  5.52E-07,  avg # of iterations =  3.3

     total cpu time spent up to now is      208.3 secs

     total energy              =    -543.62291761 Ry
     estimated scf accuracy    <       0.01237304 Ry

     total magnetization       =     4.80 Bohr mag/cell
     absolute magnetization    =     6.02 Bohr mag/cell
[tb_dev] Currently allocated     1.96E+00 Mbytes, locked:    0 /   6
[tb_pin] Currently allocated     0.00E+00 Mbytes, locked:    0 /   0

     iteration # 37     ecut=    60.00 Ry     beta= 0.40
     Davidson diagonalization with overlap

---- Real-time Memory Report at c_bands before calling an iterative solver
          1851 MiB given to the printing process from OS
          1628 MiB allocation reported by mallinfo(arena+hblkhd)
         58211 MiB available memory on the node where the printing process lives
     GPU memory used/free/total (MiB): 1930 / 14350 / 16280
------------------
     ethr =  5.52E-07,  avg # of iterations =  2.1

     total cpu time spent up to now is      214.8 secs

     total energy              =    -543.62518640 Ry
     estimated scf accuracy    <       0.02448208 Ry

     total magnetization       =     4.43 Bohr mag/cell
     absolute magnetization    =     6.26 Bohr mag/cell
[tb_dev] Currently allocated     1.96E+00 Mbytes, locked:    0 /   6
[tb_pin] Currently allocated     0.00E+00 Mbytes, locked:    0 /   0

     iteration # 38     ecut=    60.00 Ry     beta= 0.40
     Davidson diagonalization with overlap

---- Real-time Memory Report at c_bands before calling an iterative solver
          1851 MiB given to the printing process from OS
          1628 MiB allocation reported by mallinfo(arena+hblkhd)
         58213 MiB available memory on the node where the printing process lives
     GPU memory used/free/total (MiB): 1930 / 14350 / 16280
------------------
     ethr =  5.52E-07,  avg # of iterations =  2.1

     total cpu time spent up to now is      221.1 secs

     total energy              =    -543.60783416 Ry
     estimated scf accuracy    <       0.04026785 Ry

     total magnetization       =     4.10 Bohr mag/cell
     absolute magnetization    =     6.68 Bohr mag/cell
[tb_dev] Currently allocated     1.96E+00 Mbytes, locked:    0 /   6
[tb_pin] Currently allocated     0.00E+00 Mbytes, locked:    0 /   0

     iteration # 39     ecut=    60.00 Ry     beta= 0.40
     Davidson diagonalization with overlap

---- Real-time Memory Report at c_bands before calling an iterative solver
          1851 MiB given to the printing process from OS
          1628 MiB allocation reported by mallinfo(arena+hblkhd)
         58213 MiB available memory on the node where the printing process lives
     GPU memory used/free/total (MiB): 1930 / 14350 / 16280
------------------
     ethr =  5.52E-07,  avg # of iterations =  3.1

     total cpu time spent up to now is      229.4 secs

     total energy              =    -543.61966747 Ry
     estimated scf accuracy    <       0.00127050 Ry

     total magnetization       =     5.50 Bohr mag/cell
     absolute magnetization    =     5.88 Bohr mag/cell
[tb_dev] Currently allocated     1.96E+00 Mbytes, locked:    0 /   6
[tb_pin] Currently allocated     0.00E+00 Mbytes, locked:    0 /   0

     iteration # 40     ecut=    60.00 Ry     beta= 0.40
     Davidson diagonalization with overlap

---- Real-time Memory Report at c_bands before calling an iterative solver
          1851 MiB given to the printing process from OS
          1628 MiB allocation reported by mallinfo(arena+hblkhd)
         58214 MiB available memory on the node where the printing process lives
     GPU memory used/free/total (MiB): 1930 / 14350 / 16280
------------------
     ethr =  5.52E-07,  avg # of iterations =  1.0

     total cpu time spent up to now is      234.6 secs

     total energy              =    -543.61967304 Ry
     estimated scf accuracy    <       0.00128703 Ry

     total magnetization       =     5.61 Bohr mag/cell
     absolute magnetization    =     5.91 Bohr mag/cell
[tb_dev] Currently allocated     1.96E+00 Mbytes, locked:    0 /   6
[tb_pin] Currently allocated     0.00E+00 Mbytes, locked:    0 /   0

     iteration # 41     ecut=    60.00 Ry     beta= 0.40
     Davidson diagonalization with overlap

---- Real-time Memory Report at c_bands before calling an iterative solver
          1851 MiB given to the printing process from OS
          1628 MiB allocation reported by mallinfo(arena+hblkhd)
         58213 MiB available memory on the node where the printing process lives
     GPU memory used/free/total (MiB): 1930 / 14350 / 16280
------------------
     ethr =  5.52E-07,  avg # of iterations =  1.0

     total cpu time spent up to now is      239.7 secs

     total energy              =    -543.61880558 Ry
     estimated scf accuracy    <       0.00124685 Ry

     total magnetization       =     5.64 Bohr mag/cell
     absolute magnetization    =     5.92 Bohr mag/cell
[tb_dev] Currently allocated     1.96E+00 Mbytes, locked:    0 /   6
[tb_pin] Currently allocated     0.00E+00 Mbytes, locked:    0 /   0

     iteration # 42     ecut=    60.00 Ry     beta= 0.40
     Davidson diagonalization with overlap

---- Real-time Memory Report at c_bands before calling an iterative solver
          1851 MiB given to the printing process from OS
          1628 MiB allocation reported by mallinfo(arena+hblkhd)
         58214 MiB available memory on the node where the printing process lives
     GPU memory used/free/total (MiB): 1930 / 14350 / 16280
------------------
     ethr =  5.52E-07,  avg # of iterations =  2.2

     total cpu time spent up to now is      246.5 secs

     total energy              =    -543.61806647 Ry
     estimated scf accuracy    <       0.00142125 Ry

     total magnetization       =     5.89 Bohr mag/cell
     absolute magnetization    =     6.01 Bohr mag/cell
[tb_dev] Currently allocated     1.96E+00 Mbytes, locked:    0 /   6
[tb_pin] Currently allocated     0.00E+00 Mbytes, locked:    0 /   0

     iteration # 43     ecut=    60.00 Ry     beta= 0.40
     Davidson diagonalization with overlap

---- Real-time Memory Report at c_bands before calling an iterative solver
          1851 MiB given to the printing process from OS
          1628 MiB allocation reported by mallinfo(arena+hblkhd)
         58213 MiB available memory on the node where the printing process lives
     GPU memory used/free/total (MiB): 1930 / 14350 / 16280
------------------
     ethr =  5.52E-07,  avg # of iterations =  2.3

     total cpu time spent up to now is      253.5 secs

     total energy              =    -543.61866746 Ry
     estimated scf accuracy    <       0.00238169 Ry

     total magnetization       =     6.13 Bohr mag/cell
     absolute magnetization    =     6.19 Bohr mag/cell
[tb_dev] Currently allocated     1.96E+00 Mbytes, locked:    0 /   6
[tb_pin] Currently allocated     0.00E+00 Mbytes, locked:    0 /   0

     iteration # 44     ecut=    60.00 Ry     beta= 0.40
     Davidson diagonalization with overlap

---- Real-time Memory Report at c_bands before calling an iterative solver
          1851 MiB given to the printing process from OS
          1628 MiB allocation reported by mallinfo(arena+hblkhd)
         58214 MiB available memory on the node where the printing process lives
     GPU memory used/free/total (MiB): 1930 / 14350 / 16280
------------------
     ethr =  5.52E-07,  avg # of iterations =  1.0

     total cpu time spent up to now is      258.7 secs

     total energy              =    -543.61880410 Ry
     estimated scf accuracy    <       0.00189699 Ry

     total magnetization       =     6.08 Bohr mag/cell
     absolute magnetization    =     6.14 Bohr mag/cell
[tb_dev] Currently allocated     1.96E+00 Mbytes, locked:    0 /   6
[tb_pin] Currently allocated     0.00E+00 Mbytes, locked:    0 /   0

     iteration # 45     ecut=    60.00 Ry     beta= 0.40
     Davidson diagonalization with overlap

---- Real-time Memory Report at c_bands before calling an iterative solver
          1851 MiB given to the printing process from OS
          1628 MiB allocation reported by mallinfo(arena+hblkhd)
         58214 MiB available memory on the node where the printing process lives
     GPU memory used/free/total (MiB): 1930 / 14350 / 16280
------------------
     ethr =  5.52E-07,  avg # of iterations =  1.0

     total cpu time spent up to now is      263.8 secs

     total energy              =    -543.61887461 Ry
     estimated scf accuracy    <       0.00210967 Ry

     total magnetization       =     6.05 Bohr mag/cell
     absolute magnetization    =     6.12 Bohr mag/cell
[tb_dev] Currently allocated     1.96E+00 Mbytes, locked:    0 /   6
[tb_pin] Currently allocated     0.00E+00 Mbytes, locked:    0 /   0

     iteration # 46     ecut=    60.00 Ry     beta= 0.40
     Davidson diagonalization with overlap

---- Real-time Memory Report at c_bands before calling an iterative solver
          1851 MiB given to the printing process from OS
          1628 MiB allocation reported by mallinfo(arena+hblkhd)
         58215 MiB available memory on the node where the printing process lives
     GPU memory used/free/total (MiB): 1930 / 14350 / 16280
------------------
     ethr =  5.52E-07,  avg # of iterations =  1.0

     total cpu time spent up to now is      269.0 secs

     total energy              =    -543.61903596 Ry
     estimated scf accuracy    <       0.00202617 Ry

     total magnetization       =     6.03 Bohr mag/cell
     absolute magnetization    =     6.11 Bohr mag/cell
[tb_dev] Currently allocated     1.96E+00 Mbytes, locked:    0 /   6
[tb_pin] Currently allocated     0.00E+00 Mbytes, locked:    0 /   0

     iteration # 47     ecut=    60.00 Ry     beta= 0.40
     Davidson diagonalization with overlap

---- Real-time Memory Report at c_bands before calling an iterative solver
          1851 MiB given to the printing process from OS
          1628 MiB allocation reported by mallinfo(arena+hblkhd)
         58215 MiB available memory on the node where the printing process lives
     GPU memory used/free/total (MiB): 1930 / 14350 / 16280
------------------
     ethr =  5.52E-07,  avg # of iterations =  2.0

     total cpu time spent up to now is      275.5 secs

     total energy              =    -543.61402357 Ry
     estimated scf accuracy    <       0.00151268 Ry

     total magnetization       =     5.83 Bohr mag/cell
     absolute magnetization    =     5.99 Bohr mag/cell
[tb_dev] Currently allocated     1.96E+00 Mbytes, locked:    0 /   6
[tb_pin] Currently allocated     0.00E+00 Mbytes, locked:    0 /   0

     iteration # 48     ecut=    60.00 Ry     beta= 0.40
     Davidson diagonalization with overlap

---- Real-time Memory Report at c_bands before calling an iterative solver
          1851 MiB given to the printing process from OS
          1628 MiB allocation reported by mallinfo(arena+hblkhd)
         58214 MiB available memory on the node where the printing process lives
     GPU memory used/free/total (MiB): 1930 / 14350 / 16280
------------------
     ethr =  5.52E-07,  avg # of iterations =  4.1

     total cpu time spent up to now is      284.7 secs

     total energy              =    -543.61453430 Ry
     estimated scf accuracy    <       0.02543968 Ry

     total magnetization       =     4.42 Bohr mag/cell
     absolute magnetization    =     6.29 Bohr mag/cell
[tb_dev] Currently allocated     1.96E+00 Mbytes, locked:    0 /   6
[tb_pin] Currently allocated     0.00E+00 Mbytes, locked:    0 /   0

     iteration # 49     ecut=    60.00 Ry     beta= 0.40
     Davidson diagonalization with overlap

---- Real-time Memory Report at c_bands before calling an iterative solver
          1851 MiB given to the printing process from OS
          1628 MiB allocation reported by mallinfo(arena+hblkhd)
         58215 MiB available memory on the node where the printing process lives
     GPU memory used/free/total (MiB): 1930 / 14350 / 16280
------------------
     ethr =  5.52E-07,  avg # of iterations =  2.8

     total cpu time spent up to now is      292.4 secs

     total energy              =    -543.62036324 Ry
     estimated scf accuracy    <       0.00319123 Ry

     total magnetization       =     5.41 Bohr mag/cell
     absolute magnetization    =     5.91 Bohr mag/cell
[tb_dev] Currently allocated     1.96E+00 Mbytes, locked:    0 /   6
[tb_pin] Currently allocated     0.00E+00 Mbytes, locked:    0 /   0

     iteration # 50     ecut=    60.00 Ry     beta= 0.40
     Davidson diagonalization with overlap

---- Real-time Memory Report at c_bands before calling an iterative solver
          1851 MiB given to the printing process from OS
          1628 MiB allocation reported by mallinfo(arena+hblkhd)
         58216 MiB available memory on the node where the printing process lives
     GPU memory used/free/total (MiB): 1930 / 14350 / 16280
------------------
     ethr =  5.52E-07,  avg # of iterations =  2.0

     total cpu time spent up to now is      298.6 secs

     total energy              =    -543.61790280 Ry
     estimated scf accuracy    <       0.00676579 Ry

     total magnetization       =     5.15 Bohr mag/cell
     absolute magnetization    =     5.95 Bohr mag/cell
[tb_dev] Currently allocated     1.96E+00 Mbytes, locked:    0 /   6
[tb_pin] Currently allocated     0.00E+00 Mbytes, locked:    0 /   0

     iteration # 51     ecut=    60.00 Ry     beta= 0.40
     Davidson diagonalization with overlap

---- Real-time Memory Report at c_bands before calling an iterative solver
          1851 MiB given to the printing process from OS
          1628 MiB allocation reported by mallinfo(arena+hblkhd)
         58215 MiB available memory on the node where the printing process lives
     GPU memory used/free/total (MiB): 1930 / 14350 / 16280
------------------
     ethr =  5.52E-07,  avg # of iterations =  2.2

     total cpu time spent up to now is      305.5 secs

     total energy              =    -543.61835611 Ry
     estimated scf accuracy    <       0.00153037 Ry

     total magnetization       =     5.64 Bohr mag/cell
     absolute magnetization    =     5.93 Bohr mag/cell
[tb_dev] Currently allocated     1.96E+00 Mbytes, locked:    0 /   6
[tb_pin] Currently allocated     0.00E+00 Mbytes, locked:    0 /   0

     iteration # 52     ecut=    60.00 Ry     beta= 0.40
     Davidson diagonalization with overlap

---- Real-time Memory Report at c_bands before calling an iterative solver
          1851 MiB given to the printing process from OS
          1628 MiB allocation reported by mallinfo(arena+hblkhd)
         58216 MiB available memory on the node where the printing process lives
     GPU memory used/free/total (MiB): 1930 / 14350 / 16280
------------------
     ethr =  5.52E-07,  avg # of iterations =  2.4

     total cpu time spent up to now is      312.6 secs

     total energy              =    -543.61730910 Ry
     estimated scf accuracy    <       0.00144249 Ry

     total magnetization       =     5.94 Bohr mag/cell
     absolute magnetization    =     6.04 Bohr mag/cell
[tb_dev] Currently allocated     1.96E+00 Mbytes, locked:    0 /   6
[tb_pin] Currently allocated     0.00E+00 Mbytes, locked:    0 /   0

     iteration # 53     ecut=    60.00 Ry     beta= 0.40
     Davidson diagonalization with overlap

---- Real-time Memory Report at c_bands before calling an iterative solver
          1851 MiB given to the printing process from OS
          1628 MiB allocation reported by mallinfo(arena+hblkhd)
         58216 MiB available memory on the node where the printing process lives
     GPU memory used/free/total (MiB): 1930 / 14350 / 16280
------------------
     ethr =  5.52E-07,  avg # of iterations =  2.7

     total cpu time spent up to now is      320.1 secs

     total energy              =    -543.61336238 Ry
     estimated scf accuracy    <       0.00406992 Ry

     total magnetization       =     6.27 Bohr mag/cell
     absolute magnetization    =     6.34 Bohr mag/cell
[tb_dev] Currently allocated     1.96E+00 Mbytes, locked:    0 /   6
[tb_pin] Currently allocated     0.00E+00 Mbytes, locked:    0 /   0

     iteration # 54     ecut=    60.00 Ry     beta= 0.40
     Davidson diagonalization with overlap

---- Real-time Memory Report at c_bands before calling an iterative solver
          1851 MiB given to the printing process from OS
          1628 MiB allocation reported by mallinfo(arena+hblkhd)
         58216 MiB available memory on the node where the printing process lives
     GPU memory used/free/total (MiB): 1930 / 14350 / 16280
------------------
     ethr =  5.52E-07,  avg # of iterations =  3.7

     total cpu time spent up to now is      328.6 secs

     total energy              =    -543.61603390 Ry
     estimated scf accuracy    <       0.01789103 Ry

     total magnetization       =     6.76 Bohr mag/cell
     absolute magnetization    =     6.86 Bohr mag/cell
[tb_dev] Currently allocated     1.96E+00 Mbytes, locked:    0 /   6
[tb_pin] Currently allocated     0.00E+00 Mbytes, locked:    0 /   0

     iteration # 55     ecut=    60.00 Ry     beta= 0.40
     Davidson diagonalization with overlap

---- Real-time Memory Report at c_bands before calling an iterative solver
          1851 MiB given to the printing process from OS
          1628 MiB allocation reported by mallinfo(arena+hblkhd)
         58217 MiB available memory on the node where the printing process lives
     GPU memory used/free/total (MiB): 1930 / 14350 / 16280
------------------
     ethr =  5.52E-07,  avg # of iterations =  1.4

     total cpu time spent up to now is      334.1 secs

     total energy              =    -543.61708582 Ry
     estimated scf accuracy    <       0.01384118 Ry

     total magnetization       =     6.67 Bohr mag/cell
     absolute magnetization    =     6.76 Bohr mag/cell
[tb_dev] Currently allocated     1.96E+00 Mbytes, locked:    0 /   6
[tb_pin] Currently allocated     0.00E+00 Mbytes, locked:    0 /   0

     iteration # 56     ecut=    60.00 Ry     beta= 0.40
     Davidson diagonalization with overlap

---- Real-time Memory Report at c_bands before calling an iterative solver
          1851 MiB given to the printing process from OS
          1628 MiB allocation reported by mallinfo(arena+hblkhd)
         58217 MiB available memory on the node where the printing process lives
     GPU memory used/free/total (MiB): 1930 / 14350 / 16280
------------------
     ethr =  5.52E-07,  avg # of iterations =  2.0

     total cpu time spent up to now is      340.8 secs

     total energy              =    -543.61794006 Ry
     estimated scf accuracy    <       0.00513818 Ry

     total magnetization       =     6.36 Bohr mag/cell
     absolute magnetization    =     6.44 Bohr mag/cell
[tb_dev] Currently allocated     1.96E+00 Mbytes, locked:    0 /   6
[tb_pin] Currently allocated     0.00E+00 Mbytes, locked:    0 /   0

     iteration # 57     ecut=    60.00 Ry     beta= 0.40
     Davidson diagonalization with overlap

---- Real-time Memory Report at c_bands before calling an iterative solver
          1851 MiB given to the printing process from OS
          1628 MiB allocation reported by mallinfo(arena+hblkhd)
         58217 MiB available memory on the node where the printing process lives
     GPU memory used/free/total (MiB): 1930 / 14350 / 16280
------------------
     ethr =  5.52E-07,  avg # of iterations =  1.0

     total cpu time spent up to now is      346.0 secs

     total energy              =    -543.61420000 Ry
     estimated scf accuracy    <       0.00438236 Ry

     total magnetization       =     6.31 Bohr mag/cell
     absolute magnetization    =     6.38 Bohr mag/cell
[tb_dev] Currently allocated     1.96E+00 Mbytes, locked:    0 /   6
[tb_pin] Currently allocated     0.00E+00 Mbytes, locked:    0 /   0

     iteration # 58     ecut=    60.00 Ry     beta= 0.40
[...]

     total energy              =    -543.61686223 Ry
     estimated scf accuracy    <       0.00808505 Ry

     total magnetization       =     6.50 Bohr mag/cell
     absolute magnetization    =     6.58 Bohr mag/cell
[tb_dev] Currently allocated     1.96E+00 Mbytes, locked:    0 /   6
[tb_pin] Currently allocated     0.00E+00 Mbytes, locked:    0 /   0

     iteration # 65     ecut=    60.00 Ry     beta= 0.40
     Davidson diagonalization with overlap

---- Real-time Memory Report at c_bands before calling an iterative solver
          1851 MiB given to the printing process from OS
          1628 MiB allocation reported by mallinfo(arena+hblkhd)
         58215 MiB available memory on the node where the printing process lives
     GPU memory used/free/total (MiB): 1930 / 14350 / 16280
------------------
     ethr =  5.52E-07,  avg # of iterations =  1.0

     total cpu time spent up to now is      399.8 secs

     total energy              =    -543.61707351 Ry
     estimated scf accuracy    <       0.00964767 Ry

     total magnetization       =     6.55 Bohr mag/cell
     absolute magnetization    =     6.63 Bohr mag/cell
[tb_dev] Currently allocated     1.96E+00 Mbytes, locked:    0 /   6
[tb_pin] Currently allocated     0.00E+00 Mbytes, locked:    0 /   0

     iteration # 66     ecut=    60.00 Ry     beta= 0.40
     Davidson diagonalization with overlap

---- Real-time Memory Report at c_bands before calling an iterative solver
          1851 MiB given to the printing process from OS
          1628 MiB allocation reported by mallinfo(arena+hblkhd)
         58215 MiB available memory on the node where the printing process lives
     GPU memory used/free/total (MiB): 1930 / 14350 / 16280
------------------
     ethr =  5.52E-07,  avg # of iterations =  1.0

     total cpu time spent up to now is      404.9 secs

     total energy              =    -543.61681423 Ry
     estimated scf accuracy    <       0.00830504 Ry

     total magnetization       =     6.51 Bohr mag/cell
     absolute magnetization    =     6.59 Bohr mag/cell
[tb_dev] Currently allocated     1.96E+00 Mbytes, locked:    0 /   6
[tb_pin] Currently allocated     0.00E+00 Mbytes, locked:    0 /   0

     iteration # 67     ecut=    60.00 Ry     beta= 0.40
     Davidson diagonalization with overlap

---- Real-time Memory Report at c_bands before calling an iterative solver
          1851 MiB given to the printing process from OS
          1628 MiB allocation reported by mallinfo(arena+hblkhd)
         58215 MiB available memory on the node where the printing process lives
     GPU memory used/free/total (MiB): 1930 / 14350 / 16280
------------------
     ethr =  5.52E-07,  avg # of iterations =  1.0

     total cpu time spent up to now is      410.1 secs

     total energy              =    -543.61583447 Ry
     estimated scf accuracy    <       0.00981623 Ry

     total magnetization       =     6.56 Bohr mag/cell
     absolute magnetization    =     6.64 Bohr mag/cell
[tb_dev] Currently allocated     1.96E+00 Mbytes, locked:    0 /   6
[tb_pin] Currently allocated     0.00E+00 Mbytes, locked:    0 /   0

     iteration # 68     ecut=    60.00 Ry     beta= 0.40
     Davidson diagonalization with overlap

---- Real-time Memory Report at c_bands before calling an iterative solver
          1851 MiB given to the printing process from OS
          1628 MiB allocation reported by mallinfo(arena+hblkhd)
         58211 MiB available memory on the node where the printing process lives
     GPU memory used/free/total (MiB): 1930 / 14350 / 16280
------------------
     ethr =  5.52E-07,  avg # of iterations =  2.0

     total cpu time spent up to now is      416.2 secs

     total energy              =    -543.49319221 Ry
     estimated scf accuracy    <       0.01441641 Ry

     total magnetization       =     6.69 Bohr mag/cell
     absolute magnetization    =     6.78 Bohr mag/cell
[tb_dev] Currently allocated     1.96E+00 Mbytes, locked:    0 /   6
[tb_pin] Currently allocated     0.00E+00 Mbytes, locked:    0 /   0

     iteration # 69     ecut=    60.00 Ry     beta= 0.40
     Davidson diagonalization with overlap

---- Real-time Memory Report at c_bands before calling an iterative solver
          1851 MiB given to the printing process from OS
          1628 MiB allocation reported by mallinfo(arena+hblkhd)
         58215 MiB available memory on the node where the printing process lives
     GPU memory used/free/total (MiB): 1930 / 14350 / 16280
------------------
     ethr =  5.52E-07,  avg # of iterations =  8.3

     total cpu time spent up to now is      430.8 secs

     total energy              =    -543.57482734 Ry
     estimated scf accuracy    <       0.16957734 Ry

     total magnetization       =     7.32 Bohr mag/cell
     absolute magnetization    =     7.79 Bohr mag/cell
[tb_dev] Currently allocated     1.96E+00 Mbytes, locked:    0 /   6
[tb_pin] Currently allocated     0.00E+00 Mbytes, locked:    0 /   0

     iteration # 70     ecut=    60.00 Ry     beta= 0.40
     Davidson diagonalization with overlap

---- Real-time Memory Report at c_bands before calling an iterative solver
          1851 MiB given to the printing process from OS
          1628 MiB allocation reported by mallinfo(arena+hblkhd)
         58216 MiB available memory on the node where the printing process lives
     GPU memory used/free/total (MiB): 1930 / 14350 / 16280
------------------
     ethr =  5.52E-07,  avg # of iterations =  8.8

     total cpu time spent up to now is      445.6 secs

     total energy              =    -543.61915737 Ry
     estimated scf accuracy    <       0.00062684 Ry

     total magnetization       =     5.88 Bohr mag/cell
     absolute magnetization    =     5.98 Bohr mag/cell
[tb_dev] Currently allocated     1.96E+00 Mbytes, locked:    0 /   6
[tb_pin] Currently allocated     0.00E+00 Mbytes, locked:    0 /   0

     iteration # 71     ecut=    60.00 Ry     beta= 0.40
     Davidson diagonalization with overlap

---- Real-time Memory Report at c_bands before calling an iterative solver
          1851 MiB given to the printing process from OS
          1628 MiB allocation reported by mallinfo(arena+hblkhd)
         58215 MiB available memory on the node where the printing process lives
     GPU memory used/free/total (MiB): 1930 / 14350 / 16280
------------------
     ethr =  5.52E-07,  avg # of iterations =  2.0

     total cpu time spent up to now is      452.1 secs

     total energy              =    -543.61953139 Ry
     estimated scf accuracy    <       0.00038833 Ry

     total magnetization       =     5.66 Bohr mag/cell
     absolute magnetization    =     5.88 Bohr mag/cell
[tb_dev] Currently allocated     1.96E+00 Mbytes, locked:    0 /   6
[tb_pin] Currently allocated     0.00E+00 Mbytes, locked:    0 /   0

     iteration # 72     ecut=    60.00 Ry     beta= 0.40
     Davidson diagonalization with overlap

---- Real-time Memory Report at c_bands before calling an iterative solver
          1851 MiB given to the printing process from OS
          1628 MiB allocation reported by mallinfo(arena+hblkhd)
         58212 MiB available memory on the node where the printing process lives
     GPU memory used/free/total (MiB): 1930 / 14350 / 16280
------------------
     ethr =  5.52E-07,  avg # of iterations =  2.0

     total cpu time spent up to now is      458.6 secs

     total energy              =    -543.61988088 Ry
     estimated scf accuracy    <       0.00075474 Ry

     total magnetization       =     5.45 Bohr mag/cell
     absolute magnetization    =     5.85 Bohr mag/cell
[tb_dev] Currently allocated     1.96E+00 Mbytes, locked:    0 /   6
[tb_pin] Currently allocated     0.00E+00 Mbytes, locked:    0 /   0

     iteration # 73     ecut=    60.00 Ry     beta= 0.40
     Davidson diagonalization with overlap

---- Real-time Memory Report at c_bands before calling an iterative solver
          1851 MiB given to the printing process from OS
          1628 MiB allocation reported by mallinfo(arena+hblkhd)
         58214 MiB available memory on the node where the printing process lives
     GPU memory used/free/total (MiB): 1930 / 14350 / 16280
------------------
     ethr =  5.52E-07,  avg # of iterations =  2.1

     total cpu time spent up to now is      465.4 secs

     total energy              =    -543.61863165 Ry
     estimated scf accuracy    <       0.00377432 Ry

     total magnetization       =     5.12 Bohr mag/cell
     absolute magnetization    =     5.89 Bohr mag/cell
[tb_dev] Currently allocated     1.96E+00 Mbytes, locked:    0 /   6
[tb_pin] Currently allocated     0.00E+00 Mbytes, locked:    0 /   0

     iteration # 74     ecut=    60.00 Ry     beta= 0.40
     Davidson diagonalization with overlap

---- Real-time Memory Report at c_bands before calling an iterative solver
          1851 MiB given to the printing process from OS
          1628 MiB allocation reported by mallinfo(arena+hblkhd)
         58210 MiB available memory on the node where the printing process lives
     GPU memory used/free/total (MiB): 1930 / 14350 / 16280
------------------
     ethr =  5.52E-07,  avg # of iterations =  2.0

     total cpu time spent up to now is      472.1 secs

     total energy              =    -543.61604629 Ry
     estimated scf accuracy    <       0.00081573 Ry

     total magnetization       =     5.53 Bohr mag/cell
     absolute magnetization    =     5.87 Bohr mag/cell
[tb_dev] Currently allocated     1.96E+00 Mbytes, locked:    0 /   6
[tb_pin] Currently allocated     0.00E+00 Mbytes, locked:    0 /   0

     iteration # 75     ecut=    60.00 Ry     beta= 0.40
     Davidson diagonalization with overlap

---- Real-time Memory Report at c_bands before calling an iterative solver
          1851 MiB given to the printing process from OS
          1628 MiB allocation reported by mallinfo(arena+hblkhd)
         58214 MiB available memory on the node where the printing process lives
     GPU memory used/free/total (MiB): 1930 / 14350 / 16280
------------------
     ethr =  5.52E-07,  avg # of iterations =  3.0

     total cpu time spent up to now is      479.9 secs

     total energy              =    -543.61805230 Ry
     estimated scf accuracy    <       0.00192686 Ry

     total magnetization       =     6.12 Bohr mag/cell
     absolute magnetization    =     6.18 Bohr mag/cell
[tb_dev] Currently allocated     1.96E+00 Mbytes, locked:    0 /   6
[tb_pin] Currently allocated     0.00E+00 Mbytes, locked:    0 /   0

     iteration # 76     ecut=    60.00 Ry     beta= 0.40
     Davidson diagonalization with overlap

---- Real-time Memory Report at c_bands before calling an iterative solver
          1851 MiB given to the printing process from OS
          1628 MiB allocation reported by mallinfo(arena+hblkhd)
         58215 MiB available memory on the node where the printing process lives
     GPU memory used/free/total (MiB): 1930 / 14350 / 16280
------------------
     ethr =  5.52E-07,  avg # of iterations =  2.0

     total cpu time spent up to now is      485.8 secs

     total energy              =    -543.61806038 Ry
     estimated scf accuracy    <       0.00301966 Ry

     total magnetization       =     6.24 Bohr mag/cell
     absolute magnetization    =     6.30 Bohr mag/cell
[tb_dev] Currently allocated     1.96E+00 Mbytes, locked:    0 /   6
[tb_pin] Currently allocated     0.00E+00 Mbytes, locked:    0 /   0

     iteration # 77     ecut=    60.00 Ry     beta= 0.40
     Davidson diagonalization with overlap

---- Real-time Memory Report at c_bands before calling an iterative solver
          1851 MiB given to the printing process from OS
          1628 MiB allocation reported by mallinfo(arena+hblkhd)
         58216 MiB available memory on the node where the printing process lives
     GPU memory used/free/total (MiB): 1930 / 14350 / 16280
------------------
     ethr =  5.52E-07,  avg # of iterations =  1.0

     total cpu time spent up to now is      490.9 secs

     total energy              =    -543.61837559 Ry
     estimated scf accuracy    <       0.00328035 Ry

     total magnetization       =     6.26 Bohr mag/cell
     absolute magnetization    =     6.33 Bohr mag/cell
[tb_dev] Currently allocated     1.96E+00 Mbytes, locked:    0 /   6
[tb_pin] Currently allocated     0.00E+00 Mbytes, locked:    0 /   0

     iteration # 78     ecut=    60.00 Ry     beta= 0.40
     Davidson diagonalization with overlap

---- Real-time Memory Report at c_bands before calling an iterative solver
          1851 MiB given to the printing process from OS
          1628 MiB allocation reported by mallinfo(arena+hblkhd)
         58216 MiB available memory on the node where the printing process lives
     GPU memory used/free/total (MiB): 1930 / 14350 / 16280
------------------
     ethr =  5.52E-07,  avg # of iterations =  2.0

     total cpu time spent up to now is      496.8 secs

     total energy              =    -543.61473606 Ry
     estimated scf accuracy    <       0.00179057 Ry

     total magnetization       =     6.12 Bohr mag/cell
     absolute magnetization    =     6.18 Bohr mag/cell
[tb_dev] Currently allocated     1.96E+00 Mbytes, locked:    0 /   6
[tb_pin] Currently allocated     0.00E+00 Mbytes, locked:    0 /   0

     iteration # 79     ecut=    60.00 Ry     beta= 0.40
     Davidson diagonalization with overlap

---- Real-time Memory Report at c_bands before calling an iterative solver
          1851 MiB given to the printing process from OS
          1628 MiB allocation reported by mallinfo(arena+hblkhd)
         58216 MiB available memory on the node where the printing process lives
     GPU memory used/free/total (MiB): 1930 / 14350 / 16280
------------------
     ethr =  5.52E-07,  avg # of iterations =  2.6

     total cpu time spent up to now is      504.2 secs

     total energy              =    -543.61552875 Ry
     estimated scf accuracy    <       0.01196712 Ry

     total magnetization       =     6.63 Bohr mag/cell
     absolute magnetization    =     6.71 Bohr mag/cell
[tb_dev] Currently allocated     1.96E+00 Mbytes, locked:    0 /   6
[tb_pin] Currently allocated     0.00E+00 Mbytes, locked:    0 /   0

     iteration # 80     ecut=    60.00 Ry     beta= 0.40
     Davidson diagonalization with overlap

---- Real-time Memory Report at c_bands before calling an iterative solver
          1851 MiB given to the printing process from OS
          1628 MiB allocation reported by mallinfo(arena+hblkhd)
         58215 MiB available memory on the node where the printing process lives
     GPU memory used/free/total (MiB): 1930 / 14350 / 16280
------------------
     ethr =  5.52E-07,  avg # of iterations =  2.0

     total cpu time spent up to now is      510.4 secs

     total energy              =    -543.61604125 Ry
     estimated scf accuracy    <       0.01766347 Ry

     total magnetization       =     6.76 Bohr mag/cell
     absolute magnetization    =     6.85 Bohr mag/cell

     End of self-consistent calculation

     convergence NOT achieved after  80 iterations: stopping

     Writing config to output data dir ./out/aiida.save/
 
     init_run     :     13.01s CPU      5.74s WALL (       1 calls)
     electrons    :    682.10s CPU    504.11s WALL (       1 calls)

     Called by init_run:
     wfcinit      :      2.94s CPU      3.99s WALL (       1 calls)
                                        3.99s GPU  (       1 calls)
     wfcinit:atom :      0.05s CPU      0.06s WALL (     176 calls)
                                        0.06s GPU  (     176 calls)
     wfcinit:wfcr :      1.77s CPU      2.38s WALL (     176 calls)
                                        2.38s GPU  (     176 calls)
     potinit      :      1.04s CPU      0.09s WALL (       1 calls)
     hinit0       :      6.63s CPU      0.97s WALL (       1 calls)

     Called by electrons:
     c_bands      :    500.96s CPU    415.89s WALL (      80 calls)
     sum_band     :     70.21s CPU     77.75s WALL (      80 calls)
     v_of_rho     :     27.52s CPU      2.46s WALL (      81 calls)
     v_h          :      3.96s CPU      0.35s WALL (      81 calls)
     v_xc         :     23.54s CPU      2.12s WALL (      81 calls)
     newd         :     42.50s CPU      4.16s WALL (      81 calls)
                                        4.16s GPU  (      81 calls)
     mix_rho      :     31.99s CPU      3.17s WALL (      80 calls)

     Called by c_bands:
     init_us_2    :     29.49s CPU     28.66s WALL (   28336 calls)
     init_us_2:gp :     28.94s CPU     28.19s WALL (   28336 calls)
     cegterg      :    427.80s CPU    356.58s WALL (   14080 calls)

     Called by sum_band:
     sum_band:wei :      0.57s CPU      0.58s WALL (      80 calls)
                                        0.58s GPU  (      80 calls)
     sum_band:loo :     65.05s CPU     72.49s WALL (      80 calls)
                                       72.49s GPU  (      80 calls)
     sum_band:buf :     18.68s CPU     19.91s WALL (   14080 calls)
                                       19.82s GPU  (   14080 calls)
     sum_band:ini :     12.37s CPU     14.26s WALL (   14080 calls)
                                       14.18s GPU  (   14080 calls)
     sum_band:cal :      0.37s CPU      2.80s WALL (   14080 calls)
                                        2.35s GPU  (   14080 calls)
     sum_band:bec :      3.10s CPU      3.73s WALL (   14080 calls)
                                        3.64s GPU  (   14080 calls)
     addusdens    :      3.03s CPU      3.12s WALL (      80 calls)
                                        3.12s GPU  (      80 calls)
     addusd:skk   :      0.03s CPU      0.03s WALL (     240 calls)
                                        0.03s GPU  (     240 calls)

     Called by *egterg:
     cdiaghg      :    141.38s CPU    127.34s WALL (   41093 calls)
                                      127.06s GPU  (   41093 calls)
     cegterg:over :      9.32s CPU      7.70s WALL (   27013 calls)
     cegterg:upda :     16.42s CPU     13.60s WALL (   27013 calls)
     cegterg:last :      6.07s CPU      5.02s WALL (   22952 calls)
     h_psi        :    223.15s CPU    179.11s WALL (   41269 calls)
                                      178.66s GPU  (   41269 calls)
     s_psi        :      6.39s CPU     10.26s WALL (   41269 calls)
                                        9.42s GPU  (   41269 calls)
     g_psi        :      0.23s CPU      1.10s WALL (   27013 calls)
                                        0.93s GPU  (   27013 calls)

     Called by h_psi:
     h_psi:calbec :      1.59s CPU      7.11s WALL (   41269 calls)
                                        6.85s GPU  (   41269 calls)
     vloc_psi     :    193.89s CPU    155.94s WALL (   41269 calls)
                                      155.68s GPU  (   41269 calls)
     add_vuspsi   :     10.88s CPU     12.78s WALL (   41269 calls)
                                       12.52s GPU  (   41269 calls)

     General routines
     calbec       :      1.39s CPU      1.21s WALL (   55349 calls)
     fft          :      2.41s CPU      0.45s WALL (    2023 calls)
                                        0.37s GPU  (    1861 calls)
     ffts         :      0.06s CPU      0.04s WALL (     322 calls)
                                        0.01s GPU  (     160 calls)
     fftw         :      5.80s CPU    121.20s WALL (  254478 calls)
                                      119.80s GPU  (  254478 calls)
     interpolate  :      3.64s CPU      0.32s WALL (     162 calls)
     davcio       :      0.94s CPU      0.52s WALL (     194 calls)
 
     Parallel routines
 
     PWSCF        :  11m38.87s CPU   8m31.13s WALL

 
   This run was terminated on:  18:19: 7  22Oct2023            

=------------------------------------------------------------------------------=
   JOB DONE.
=------------------------------------------------------------------------------=
