
     Program PWSCF v.7.2 starts on 22Oct2023 at 17:50:18 

     This program is part of the open-source Quantum ESPRESSO suite
     for quantum simulation of materials; please cite
         "P. Giannozzi et al., J. Phys.:Condens. Matter 21 395502 (2009);
         "P. Giannozzi et al., J. Phys.:Condens. Matter 29 465901 (2017);
         "P. Giannozzi et al., J. Chem. Phys. 152 154105 (2020);
          URL http://www.quantum-espresso.org", 
     in publications or presentations arising from this work. More details at
     http://www.quantum-espresso.org/quote

     Parallel version (MPI & OpenMP), running on      12 processor cores
     Number of MPI processes:                 1
     Threads/MPI process:                    12

     MPI processes distributed on     1 nodes
     60309 MiB available memory on the printing compute node when the environment starts
 
     Reading input from aiida.in

     Current dimensions of program PWSCF are:
     Max number of different atomic species (ntypx) = 10
     Max number of k-points (npk) =  40000
     Max angular momentum in pseudopotentials (lmaxx) =  4
     Message from routine setup:
     using ibrav=0 with symmetry is DISCOURAGED, use correct ibrav instead
 
     Subspace diagonalization in iterative solution of the eigenvalue problem:
     a serial algorithm will be used

 
     G-vector sticks info
     --------------------
     sticks:   dense  smooth     PW     G-vecs:    dense   smooth      PW
     Sum        5351    2675    773               255401    90287   14011
 
     Using Slab Decomposition
 


     bravais-lattice index     =            0
     lattice parameter (alat)  =      12.6164  a.u.
     unit-cell volume          =    1438.3641 (a.u.)^3
     number of atoms/cell      =           10
     number of atomic types    =            3
     number of electrons       =        80.00
     number of Kohn-Sham states=           48
     kinetic-energy cutoff     =      60.0000  Ry
     charge density cutoff     =     480.0000  Ry
     scf convergence threshold =      2.0E-09
     mixing beta               =       0.4000
     number of iterations used =            8  plain     mixing
     Exchange-correlation= SLA  PW   PSX  PSC
                           (   1   4  10   8   0   0   0)

     GPU acceleration is ACTIVE.


     GPU used by master process:

        Device Number: 0
        Device name: Tesla P100-PCIE-16GB
        Compute capability : 60
        Ratio of single to double precision performance  : 2
        Memory Clock Rate (KHz): 715000
        Memory Bus Width (bits): 4096
        Peak Memory Bandwidth (GB/s): 732.16

     celldm(1)=  12.616406  celldm(2)=   0.000000  celldm(3)=   0.000000
     celldm(4)=   0.000000  celldm(5)=   0.000000  celldm(6)=   0.000000

     crystal axes: (cart. coord. in units of alat)
               a(1) = (   0.857981   0.513682   0.000000 )  
               a(2) = (  -0.857981   0.513682   0.000000 )  
               a(3) = (  -0.538195   0.000000   0.812569 )  

     reciprocal axes: (cart. coord. in units 2 pi/alat)
               b(1) = (  0.582764  0.973366  0.385986 )  
               b(2) = ( -0.582764  0.973366 -0.385986 )  
               b(3) = (  0.000000 -0.000000  1.230665 )  


     PseudoPot. # 1 for F  read from file:
     ./pseudo/f_pbesol_v1.4.uspp.F.UPF
     MD5 check sum: d2815ecb49b17b99c5724ffd2f9bbd8d
     Pseudo is Ultrasoft, Zval =  7.0
     Generated by new atomic code, or converted to UPF format
     Using radial grid of  799 points,  4 beta functions with: 
                l(1) =   0
                l(2) =   0
                l(3) =   1
                l(4) =   1
     Q(r) pseudized with  8 coefficients,  rinner =    0.950   0.950   0.950


     PseudoPot. # 2 for N  read from file:
     ./pseudo/N.pbesol-theos.UPF
     MD5 check sum: 1b64827339d390a5a22afef3ff345c9d
     Pseudo is Ultrasoft + core correction, Zval =  5.0
     Generated using "atomic" code by A. Dal Corso  v.5.1
     Using radial grid of 1085 points,  4 beta functions with: 
                l(1) =   0
                l(2) =   0
                l(3) =   1
                l(4) =   1
     Q(r) pseudized with 0 coefficients 


     PseudoPot. # 3 for Sn read from file:
     ./pseudo/sn_pbesol_v1.4.uspp.F.UPF
     MD5 check sum: 463fec1d5456f1e96ec1bfcad4b7b038
     Pseudo is Ultrasoft + core correction, Zval = 14.0
     Generated by new atomic code, or converted to UPF format
     Using radial grid of  891 points,  6 beta functions with: 
                l(1) =   0
                l(2) =   0
                l(3) =   1
                l(4) =   1
                l(5) =   2
                l(6) =   2
     Q(r) pseudized with  8 coefficients,  rinner =    1.350   1.350   1.350
                                                       1.350   1.350

     atomic species   valence    mass     pseudopotential
        F              7.00    18.99840     F ( 1.00)
        N              5.00    14.00670     N ( 1.00)
        Sn            14.00   118.71000     Sn( 1.00)

     Starting magnetic structure 
     atomic species   magnetization
        F            0.100
        N            0.100
        Sn           0.100

      2 Sym. Ops. (no inversion) found


                                    s                        frac. trans.

      isym =  1     identity                                     

 cryst.   s( 1) = (     1          0          0      )
                  (     0          1          0      )
                  (     0          0          1      )

 cart.    s( 1) = (  1.0000000  0.0000000 -0.0000000 )
                  ( -0.0000000  1.0000000  0.0000000 )
                  (  0.0000000  0.0000000  1.0000000 )


      isym =  2     180 deg rotation - cart. axis [0,1,0]        

 cryst.   s( 2) = (     0          1          0      )
                  (     1          0          0      )
                  (     0          0         -1      )

 cart.    s( 2) = ( -1.0000000  0.0000000  0.0000000 )
                  (  0.0000000  1.0000000 -0.0000000 )
                  (  0.0000000  0.0000000 -1.0000000 )


   Cartesian axes

     site n.     atom                  positions (alat units)
         1           Sn  tau(   1) = (   1.1361978   0.1407488   0.5185816  )
         2           Sn  tau(   2) = (   0.0415690   0.1407488   0.2939875  )
         3           N   tau(   3) = (   0.5883347   0.1130100   0.7231865  )
         4           N   tau(   4) = (   0.5894321   0.1130100   0.0893826  )
         5           F   tau(   5) = (   1.0149771   0.0000000   0.7630024  )
         6           F   tau(   6) = (   0.1627897   0.0000000   0.0495667  )
         7           F   tau(   7) = (   0.0932418   0.9143533   0.6053640  )
         8           F   tau(   8) = (   1.0845251   0.9143533   0.2072051  )
         9           F   tau(   9) = (   0.8744666   0.0523955   0.3689064  )
        10           F   tau(  10) = (   0.3033003   0.0523955   0.4436627  )

   Crystallographic axes

     site n.     atom                  positions (cryst. coord.)
         1           Sn  tau(   1) = (  0.9993000 -0.7253000  0.6382000  )
         2           Sn  tau(   2) = (  0.2747000 -0.0007000  0.3618000  )
         3           N   tau(   3) = (  0.7320000 -0.5120000  0.8900000  )
         4           N   tau(   4) = (  0.4880000 -0.2680000  0.1100000  )
         5           F   tau(   5) = (  0.8860000 -0.8860000  0.9390000  )
         6           F   tau(   6) = (  0.1140000 -0.1140000  0.0610000  )
         7           F   tau(   7) = (  1.1780000  0.6020000  0.7450000  )
         8           F   tau(   8) = (  1.6020000  0.1780000  0.2550000  )
         9           F   tau(   9) = (  0.7030000 -0.6010000  0.4540000  )
        10           F   tau(  10) = (  0.3990000 -0.2970000  0.5460000  )

     number of k points=   150  Marzari-Vanderbilt smearing, width (Ry)=  0.0100
                       cart. coord. in units 2pi/alat
        k(    1) = (   0.0000000   0.0000000   0.0000000), wk =   0.0019531
        k(    2) = (   0.0000000   0.0000000   0.1538331), wk =   0.0039063
        k(    3) = (   0.0000000   0.0000000   0.3076662), wk =   0.0039063
        k(    4) = (   0.0000000   0.0000000   0.4614992), wk =   0.0039063
        k(    5) = (   0.0000000   0.0000000  -0.6153323), wk =   0.0019531
        k(    6) = (  -0.0728454   0.1216707  -0.0482483), wk =   0.0078125
        k(    7) = (  -0.0728454   0.1216707   0.1055848), wk =   0.0078125
        k(    8) = (  -0.0728454   0.1216707   0.2594179), wk =   0.0078125
        k(    9) = (  -0.0728454   0.1216707   0.4132510), wk =   0.0078125
        k(   10) = (  -0.0728454   0.1216707  -0.6635806), wk =   0.0078125
        k(   11) = (  -0.0728454   0.1216707  -0.5097475), wk =   0.0078125
        k(   12) = (  -0.0728454   0.1216707  -0.3559144), wk =   0.0078125
        k(   13) = (  -0.0728454   0.1216707  -0.2020813), wk =   0.0078125
        k(   14) = (  -0.1456909   0.2433414  -0.0964965), wk =   0.0078125
        k(   15) = (  -0.1456909   0.2433414   0.0573365), wk =   0.0078125
        k(   16) = (  -0.1456909   0.2433414   0.2111696), wk =   0.0078125
        k(   17) = (  -0.1456909   0.2433414   0.3650027), wk =   0.0078125
        k(   18) = (  -0.1456909   0.2433414  -0.7118288), wk =   0.0078125
        k(   19) = (  -0.1456909   0.2433414  -0.5579958), wk =   0.0078125
        k(   20) = (  -0.1456909   0.2433414  -0.4041627), wk =   0.0078125
        k(   21) = (  -0.1456909   0.2433414  -0.2503296), wk =   0.0078125
        k(   22) = (  -0.2185363   0.3650121  -0.1447448), wk =   0.0078125
        k(   23) = (  -0.2185363   0.3650121   0.0090883), wk =   0.0078125
        k(   24) = (  -0.2185363   0.3650121   0.1629214), wk =   0.0078125
        k(   25) = (  -0.2185363   0.3650121   0.3167544), wk =   0.0078125
        k(   26) = (  -0.2185363   0.3650121  -0.7600771), wk =   0.0078125
        k(   27) = (  -0.2185363   0.3650121  -0.6062440), wk =   0.0078125
        k(   28) = (  -0.2185363   0.3650121  -0.4524110), wk =   0.0078125
        k(   29) = (  -0.2185363   0.3650121  -0.2985779), wk =   0.0078125
        k(   30) = (   0.2913818  -0.4866828   0.1929931), wk =   0.0039063
        k(   31) = (   0.2913818  -0.4866828   0.3468261), wk =   0.0078125
        k(   32) = (   0.2913818  -0.4866828   0.5006592), wk =   0.0078125
        k(   33) = (   0.2913818  -0.4866828   0.6544923), wk =   0.0078125
        k(   34) = (   0.2913818  -0.4866828  -0.4223392), wk =   0.0039063
        k(   35) = (   0.0000000   0.2433414   0.0000000), wk =   0.0039063
        k(   36) = (   0.0000000   0.2433414   0.1538331), wk =   0.0078125
        k(   37) = (   0.0000000   0.2433414   0.3076662), wk =   0.0078125
        k(   38) = (   0.0000000   0.2433414   0.4614992), wk =   0.0078125
        k(   39) = (   0.0000000   0.2433414  -0.6153323), wk =   0.0039063
        k(   40) = (  -0.0728454   0.3650121  -0.0482483), wk =   0.0078125
        k(   41) = (  -0.0728454   0.3650121   0.1055848), wk =   0.0078125
        k(   42) = (  -0.0728454   0.3650121   0.2594179), wk =   0.0078125
        k(   43) = (  -0.0728454   0.3650121   0.4132510), wk =   0.0078125
        k(   44) = (  -0.0728454   0.3650121  -0.6635806), wk =   0.0078125
        k(   45) = (  -0.0728454   0.3650121  -0.5097475), wk =   0.0078125
        k(   46) = (  -0.0728454   0.3650121  -0.3559144), wk =   0.0078125
        k(   47) = (  -0.0728454   0.3650121  -0.2020813), wk =   0.0078125
        k(   48) = (  -0.1456909   0.4866828  -0.0964965), wk =   0.0078125
        k(   49) = (  -0.1456909   0.4866828   0.0573365), wk =   0.0078125
        k(   50) = (  -0.1456909   0.4866828   0.2111696), wk =   0.0078125
        k(   51) = (  -0.1456909   0.4866828   0.3650027), wk =   0.0078125
        k(   52) = (  -0.1456909   0.4866828  -0.7118288), wk =   0.0078125
        k(   53) = (  -0.1456909   0.4866828  -0.5579958), wk =   0.0078125
        k(   54) = (  -0.1456909   0.4866828  -0.4041627), wk =   0.0078125
        k(   55) = (  -0.1456909   0.4866828  -0.2503296), wk =   0.0078125
        k(   56) = (   0.3642272  -0.3650121   0.2412413), wk =   0.0078125
        k(   57) = (   0.3642272  -0.3650121   0.3950744), wk =   0.0078125
        k(   58) = (   0.3642272  -0.3650121   0.5489075), wk =   0.0078125
        k(   59) = (   0.3642272  -0.3650121   0.7027406), wk =   0.0078125
        k(   60) = (   0.3642272  -0.3650121  -0.3740910), wk =   0.0078125
        k(   61) = (   0.3642272  -0.3650121  -0.2202579), wk =   0.0078125
        k(   62) = (   0.3642272  -0.3650121  -0.0664248), wk =   0.0078125
        k(   63) = (   0.3642272  -0.3650121   0.0874083), wk =   0.0078125
        k(   64) = (   0.2913818  -0.2433414   0.1929931), wk =   0.0078125
        k(   65) = (   0.2913818  -0.2433414   0.3468261), wk =   0.0078125
        k(   66) = (   0.2913818  -0.2433414   0.5006592), wk =   0.0078125
        k(   67) = (   0.2913818  -0.2433414   0.6544923), wk =   0.0078125
        k(   68) = (   0.2913818  -0.2433414  -0.4223392), wk =   0.0078125
        k(   69) = (   0.2913818  -0.2433414  -0.2685062), wk =   0.0078125
        k(   70) = (   0.2913818  -0.2433414  -0.1146731), wk =   0.0078125
        k(   71) = (   0.2913818  -0.2433414   0.0391600), wk =   0.0078125
        k(   72) = (   0.2185363  -0.1216707   0.1447448), wk =   0.0078125
        k(   73) = (   0.2185363  -0.1216707   0.2985779), wk =   0.0078125
        k(   74) = (   0.2185363  -0.1216707   0.4524110), wk =   0.0078125
        k(   75) = (   0.2185363  -0.1216707   0.6062440), wk =   0.0078125
        k(   76) = (   0.2185363  -0.1216707  -0.4705875), wk =   0.0078125
        k(   77) = (   0.2185363  -0.1216707  -0.3167544), wk =   0.0078125
        k(   78) = (   0.2185363  -0.1216707  -0.1629214), wk =   0.0078125
        k(   79) = (   0.2185363  -0.1216707  -0.0090883), wk =   0.0078125
        k(   80) = (   0.1456909   0.0000000   0.0964965), wk =   0.0039063
        k(   81) = (   0.1456909   0.0000000   0.2503296), wk =   0.0039063
        k(   82) = (   0.1456909   0.0000000   0.4041627), wk =   0.0039063
        k(   83) = (   0.1456909   0.0000000   0.5579958), wk =   0.0039063
        k(   84) = (   0.1456909   0.0000000  -0.5188358), wk =   0.0039063
        k(   85) = (   0.1456909   0.0000000  -0.3650027), wk =   0.0039063
        k(   86) = (   0.1456909   0.0000000  -0.2111696), wk =   0.0039063
        k(   87) = (   0.1456909   0.0000000  -0.0573365), wk =   0.0039063
        k(   88) = (   0.0000000   0.4866828   0.0000000), wk =   0.0039063
        k(   89) = (   0.0000000   0.4866828   0.1538331), wk =   0.0078125
        k(   90) = (   0.0000000   0.4866828   0.3076662), wk =   0.0078125
        k(   91) = (   0.0000000   0.4866828   0.4614992), wk =   0.0078125
        k(   92) = (   0.0000000   0.4866828  -0.6153323), wk =   0.0039063
        k(   93) = (  -0.0728454   0.6083535  -0.0482483), wk =   0.0078125
        k(   94) = (  -0.0728454   0.6083535   0.1055848), wk =   0.0078125
        k(   95) = (  -0.0728454   0.6083535   0.2594179), wk =   0.0078125
        k(   96) = (  -0.0728454   0.6083535   0.4132510), wk =   0.0078125
        k(   97) = (  -0.0728454   0.6083535  -0.6635806), wk =   0.0078125
        k(   98) = (  -0.0728454   0.6083535  -0.5097475), wk =   0.0078125
        k(   99) = (  -0.0728454   0.6083535  -0.3559144), wk =   0.0078125
        k(  100) = (  -0.0728454   0.6083535  -0.2020813), wk =   0.0078125
        k(  101) = (   0.4370727  -0.2433414   0.2894896), wk =   0.0078125
        k(  102) = (   0.4370727  -0.2433414   0.4433227), wk =   0.0078125
        k(  103) = (   0.4370727  -0.2433414   0.5971558), wk =   0.0078125
        k(  104) = (   0.4370727  -0.2433414   0.7509888), wk =   0.0078125
        k(  105) = (   0.4370727  -0.2433414  -0.3258427), wk =   0.0078125
        k(  106) = (   0.4370727  -0.2433414  -0.1720096), wk =   0.0078125
        k(  107) = (   0.4370727  -0.2433414  -0.0181766), wk =   0.0078125
        k(  108) = (   0.4370727  -0.2433414   0.1356565), wk =   0.0078125
        k(  109) = (   0.3642272  -0.1216707   0.2412413), wk =   0.0078125
        k(  110) = (   0.3642272  -0.1216707   0.3950744), wk =   0.0078125
        k(  111) = (   0.3642272  -0.1216707   0.5489075), wk =   0.0078125
        k(  112) = (   0.3642272  -0.1216707   0.7027406), wk =   0.0078125
        k(  113) = (   0.3642272  -0.1216707  -0.3740910), wk =   0.0078125
        k(  114) = (   0.3642272  -0.1216707  -0.2202579), wk =   0.0078125
        k(  115) = (   0.3642272  -0.1216707  -0.0664248), wk =   0.0078125
        k(  116) = (   0.3642272  -0.1216707   0.0874083), wk =   0.0078125
        k(  117) = (   0.2913818   0.0000000   0.1929931), wk =   0.0039063
        k(  118) = (   0.2913818   0.0000000   0.3468261), wk =   0.0039063
        k(  119) = (   0.2913818   0.0000000   0.5006592), wk =   0.0039063
        k(  120) = (   0.2913818   0.0000000   0.6544923), wk =   0.0039063
        k(  121) = (   0.2913818   0.0000000  -0.4223392), wk =   0.0039063
        k(  122) = (   0.2913818   0.0000000  -0.2685062), wk =   0.0039063
        k(  123) = (   0.2913818   0.0000000  -0.1146731), wk =   0.0039063
        k(  124) = (   0.2913818   0.0000000   0.0391600), wk =   0.0039063
        k(  125) = (   0.0000000   0.7300242   0.0000000), wk =   0.0039063
        k(  126) = (   0.0000000   0.7300242   0.1538331), wk =   0.0078125
        k(  127) = (   0.0000000   0.7300242   0.3076662), wk =   0.0078125
        k(  128) = (   0.0000000   0.7300242   0.4614992), wk =   0.0078125
        k(  129) = (   0.0000000   0.7300242  -0.6153323), wk =   0.0039063
        k(  130) = (   0.5099181  -0.1216707   0.3377379), wk =   0.0078125
        k(  131) = (   0.5099181  -0.1216707   0.4915709), wk =   0.0078125
        k(  132) = (   0.5099181  -0.1216707   0.6454040), wk =   0.0078125
        k(  133) = (   0.5099181  -0.1216707   0.7992371), wk =   0.0078125
        k(  134) = (   0.5099181  -0.1216707  -0.2775944), wk =   0.0078125
        k(  135) = (   0.5099181  -0.1216707  -0.1237614), wk =   0.0078125
        k(  136) = (   0.5099181  -0.1216707   0.0300717), wk =   0.0078125
        k(  137) = (   0.5099181  -0.1216707   0.1839048), wk =   0.0078125
        k(  138) = (   0.4370727   0.0000000   0.2894896), wk =   0.0039063
        k(  139) = (   0.4370727   0.0000000   0.4433227), wk =   0.0039063
        k(  140) = (   0.4370727   0.0000000   0.5971558), wk =   0.0039063
        k(  141) = (   0.4370727   0.0000000   0.7509888), wk =   0.0039063
        k(  142) = (   0.4370727   0.0000000  -0.3258427), wk =   0.0039063
        k(  143) = (   0.4370727   0.0000000  -0.1720096), wk =   0.0039063
        k(  144) = (   0.4370727   0.0000000  -0.0181766), wk =   0.0039063
        k(  145) = (   0.4370727   0.0000000   0.1356565), wk =   0.0039063
        k(  146) = (   0.0000000  -0.9733655   0.0000000), wk =   0.0019531
        k(  147) = (   0.0000000  -0.9733655   0.1538331), wk =   0.0039063
        k(  148) = (   0.0000000  -0.9733655   0.3076662), wk =   0.0039063
        k(  149) = (   0.0000000  -0.9733655   0.4614992), wk =   0.0039063
        k(  150) = (   0.0000000  -0.9733655  -0.6153323), wk =   0.0019531

                       cryst. coord.
        k(    1) = (   0.0000000   0.0000000   0.0000000), wk =   0.0019531
        k(    2) = (   0.0000000   0.0000000   0.1250000), wk =   0.0039063
        k(    3) = (   0.0000000   0.0000000   0.2500000), wk =   0.0039063
        k(    4) = (   0.0000000   0.0000000   0.3750000), wk =   0.0039063
        k(    5) = (   0.0000000   0.0000000  -0.5000000), wk =   0.0019531
        k(    6) = (   0.0000000   0.1250000  -0.0000000), wk =   0.0078125
        k(    7) = (   0.0000000   0.1250000   0.1250000), wk =   0.0078125
        k(    8) = (   0.0000000   0.1250000   0.2500000), wk =   0.0078125
        k(    9) = (   0.0000000   0.1250000   0.3750000), wk =   0.0078125
        k(   10) = (   0.0000000   0.1250000  -0.5000000), wk =   0.0078125
        k(   11) = (   0.0000000   0.1250000  -0.3750000), wk =   0.0078125
        k(   12) = (   0.0000000   0.1250000  -0.2500000), wk =   0.0078125
        k(   13) = (   0.0000000   0.1250000  -0.1250000), wk =   0.0078125
        k(   14) = (   0.0000000   0.2500000  -0.0000000), wk =   0.0078125
        k(   15) = (   0.0000000   0.2500000   0.1250000), wk =   0.0078125
        k(   16) = (   0.0000000   0.2500000   0.2500000), wk =   0.0078125
        k(   17) = (   0.0000000   0.2500000   0.3750000), wk =   0.0078125
        k(   18) = (   0.0000000   0.2500000  -0.5000000), wk =   0.0078125
        k(   19) = (   0.0000000   0.2500000  -0.3750000), wk =   0.0078125
        k(   20) = (   0.0000000   0.2500000  -0.2500000), wk =   0.0078125
        k(   21) = (   0.0000000   0.2500000  -0.1250000), wk =   0.0078125
        k(   22) = (   0.0000000   0.3750000  -0.0000000), wk =   0.0078125
        k(   23) = (   0.0000000   0.3750000   0.1250000), wk =   0.0078125
        k(   24) = (   0.0000000   0.3750000   0.2500000), wk =   0.0078125
        k(   25) = (   0.0000000   0.3750000   0.3750000), wk =   0.0078125
        k(   26) = (   0.0000000   0.3750000  -0.5000000), wk =   0.0078125
        k(   27) = (   0.0000000   0.3750000  -0.3750000), wk =   0.0078125
        k(   28) = (   0.0000000   0.3750000  -0.2500000), wk =   0.0078125
        k(   29) = (   0.0000000   0.3750000  -0.1250000), wk =   0.0078125
        k(   30) = (  -0.0000000  -0.5000000   0.0000000), wk =   0.0039063
        k(   31) = (  -0.0000000  -0.5000000   0.1250000), wk =   0.0078125
        k(   32) = (  -0.0000000  -0.5000000   0.2500000), wk =   0.0078125
        k(   33) = (  -0.0000000  -0.5000000   0.3750000), wk =   0.0078125
        k(   34) = (  -0.0000000  -0.5000000  -0.5000000), wk =   0.0039063
        k(   35) = (   0.1250000   0.1250000   0.0000000), wk =   0.0039063
        k(   36) = (   0.1250000   0.1250000   0.1250000), wk =   0.0078125
        k(   37) = (   0.1250000   0.1250000   0.2500000), wk =   0.0078125
        k(   38) = (   0.1250000   0.1250000   0.3750000), wk =   0.0078125
        k(   39) = (   0.1250000   0.1250000  -0.5000000), wk =   0.0039063
        k(   40) = (   0.1250000   0.2500000  -0.0000000), wk =   0.0078125
        k(   41) = (   0.1250000   0.2500000   0.1250000), wk =   0.0078125
        k(   42) = (   0.1250000   0.2500000   0.2500000), wk =   0.0078125
        k(   43) = (   0.1250000   0.2500000   0.3750000), wk =   0.0078125
        k(   44) = (   0.1250000   0.2500000  -0.5000000), wk =   0.0078125
        k(   45) = (   0.1250000   0.2500000  -0.3750000), wk =   0.0078125
        k(   46) = (   0.1250000   0.2500000  -0.2500000), wk =   0.0078125
        k(   47) = (   0.1250000   0.2500000  -0.1250000), wk =   0.0078125
        k(   48) = (   0.1250000   0.3750000  -0.0000000), wk =   0.0078125
        k(   49) = (   0.1250000   0.3750000   0.1250000), wk =   0.0078125
        k(   50) = (   0.1250000   0.3750000   0.2500000), wk =   0.0078125
        k(   51) = (   0.1250000   0.3750000   0.3750000), wk =   0.0078125
        k(   52) = (   0.1250000   0.3750000  -0.5000000), wk =   0.0078125
        k(   53) = (   0.1250000   0.3750000  -0.3750000), wk =   0.0078125
        k(   54) = (   0.1250000   0.3750000  -0.2500000), wk =   0.0078125
        k(   55) = (   0.1250000   0.3750000  -0.1250000), wk =   0.0078125
        k(   56) = (   0.1250000  -0.5000000   0.0000000), wk =   0.0078125
        k(   57) = (   0.1250000  -0.5000000   0.1250000), wk =   0.0078125
        k(   58) = (   0.1250000  -0.5000000   0.2500000), wk =   0.0078125
        k(   59) = (   0.1250000  -0.5000000   0.3750000), wk =   0.0078125
        k(   60) = (   0.1250000  -0.5000000  -0.5000000), wk =   0.0078125
        k(   61) = (   0.1250000  -0.5000000  -0.3750000), wk =   0.0078125
        k(   62) = (   0.1250000  -0.5000000  -0.2500000), wk =   0.0078125
        k(   63) = (   0.1250000  -0.5000000  -0.1250000), wk =   0.0078125
        k(   64) = (   0.1250000  -0.3750000   0.0000000), wk =   0.0078125
        k(   65) = (   0.1250000  -0.3750000   0.1250000), wk =   0.0078125
        k(   66) = (   0.1250000  -0.3750000   0.2500000), wk =   0.0078125
        k(   67) = (   0.1250000  -0.3750000   0.3750000), wk =   0.0078125
        k(   68) = (   0.1250000  -0.3750000  -0.5000000), wk =   0.0078125
        k(   69) = (   0.1250000  -0.3750000  -0.3750000), wk =   0.0078125
        k(   70) = (   0.1250000  -0.3750000  -0.2500000), wk =   0.0078125
        k(   71) = (   0.1250000  -0.3750000  -0.1250000), wk =   0.0078125
        k(   72) = (   0.1250000  -0.2500000   0.0000000), wk =   0.0078125
        k(   73) = (   0.1250000  -0.2500000   0.1250000), wk =   0.0078125
        k(   74) = (   0.1250000  -0.2500000   0.2500000), wk =   0.0078125
        k(   75) = (   0.1250000  -0.2500000   0.3750000), wk =   0.0078125
        k(   76) = (   0.1250000  -0.2500000  -0.5000000), wk =   0.0078125
        k(   77) = (   0.1250000  -0.2500000  -0.3750000), wk =   0.0078125
        k(   78) = (   0.1250000  -0.2500000  -0.2500000), wk =   0.0078125
        k(   79) = (   0.1250000  -0.2500000  -0.1250000), wk =   0.0078125
        k(   80) = (   0.1250000  -0.1250000   0.0000000), wk =   0.0039063
        k(   81) = (   0.1250000  -0.1250000   0.1250000), wk =   0.0039063
        k(   82) = (   0.1250000  -0.1250000   0.2500000), wk =   0.0039063
        k(   83) = (   0.1250000  -0.1250000   0.3750000), wk =   0.0039063
        k(   84) = (   0.1250000  -0.1250000  -0.5000000), wk =   0.0039063
        k(   85) = (   0.1250000  -0.1250000  -0.3750000), wk =   0.0039063
        k(   86) = (   0.1250000  -0.1250000  -0.2500000), wk =   0.0039063
        k(   87) = (   0.1250000  -0.1250000  -0.1250000), wk =   0.0039063
        k(   88) = (   0.2500000   0.2500000   0.0000000), wk =   0.0039063
        k(   89) = (   0.2500000   0.2500000   0.1250000), wk =   0.0078125
        k(   90) = (   0.2500000   0.2500000   0.2500000), wk =   0.0078125
        k(   91) = (   0.2500000   0.2500000   0.3750000), wk =   0.0078125
        k(   92) = (   0.2500000   0.2500000  -0.5000000), wk =   0.0039063
        k(   93) = (   0.2500000   0.3750000  -0.0000000), wk =   0.0078125
        k(   94) = (   0.2500000   0.3750000   0.1250000), wk =   0.0078125
        k(   95) = (   0.2500000   0.3750000   0.2500000), wk =   0.0078125
        k(   96) = (   0.2500000   0.3750000   0.3750000), wk =   0.0078125
        k(   97) = (   0.2500000   0.3750000  -0.5000000), wk =   0.0078125
        k(   98) = (   0.2500000   0.3750000  -0.3750000), wk =   0.0078125
        k(   99) = (   0.2500000   0.3750000  -0.2500000), wk =   0.0078125
        k(  100) = (   0.2500000   0.3750000  -0.1250000), wk =   0.0078125
        k(  101) = (   0.2500000  -0.5000000   0.0000000), wk =   0.0078125
        k(  102) = (   0.2500000  -0.5000000   0.1250000), wk =   0.0078125
        k(  103) = (   0.2500000  -0.5000000   0.2500000), wk =   0.0078125
        k(  104) = (   0.2500000  -0.5000000   0.3750000), wk =   0.0078125
        k(  105) = (   0.2500000  -0.5000000  -0.5000000), wk =   0.0078125
        k(  106) = (   0.2500000  -0.5000000  -0.3750000), wk =   0.0078125
        k(  107) = (   0.2500000  -0.5000000  -0.2500000), wk =   0.0078125
        k(  108) = (   0.2500000  -0.5000000  -0.1250000), wk =   0.0078125
        k(  109) = (   0.2500000  -0.3750000   0.0000000), wk =   0.0078125
        k(  110) = (   0.2500000  -0.3750000   0.1250000), wk =   0.0078125
        k(  111) = (   0.2500000  -0.3750000   0.2500000), wk =   0.0078125
        k(  112) = (   0.2500000  -0.3750000   0.3750000), wk =   0.0078125
        k(  113) = (   0.2500000  -0.3750000  -0.5000000), wk =   0.0078125
        k(  114) = (   0.2500000  -0.3750000  -0.3750000), wk =   0.0078125
        k(  115) = (   0.2500000  -0.3750000  -0.2500000), wk =   0.0078125
        k(  116) = (   0.2500000  -0.3750000  -0.1250000), wk =   0.0078125
        k(  117) = (   0.2500000  -0.2500000   0.0000000), wk =   0.0039063
        k(  118) = (   0.2500000  -0.2500000   0.1250000), wk =   0.0039063
        k(  119) = (   0.2500000  -0.2500000   0.2500000), wk =   0.0039063
        k(  120) = (   0.2500000  -0.2500000   0.3750000), wk =   0.0039063
        k(  121) = (   0.2500000  -0.2500000  -0.5000000), wk =   0.0039063
        k(  122) = (   0.2500000  -0.2500000  -0.3750000), wk =   0.0039063
        k(  123) = (   0.2500000  -0.2500000  -0.2500000), wk =   0.0039063
        k(  124) = (   0.2500000  -0.2500000  -0.1250000), wk =   0.0039063
        k(  125) = (   0.3750000   0.3750000   0.0000000), wk =   0.0039063
        k(  126) = (   0.3750000   0.3750000   0.1250000), wk =   0.0078125
        k(  127) = (   0.3750000   0.3750000   0.2500000), wk =   0.0078125
        k(  128) = (   0.3750000   0.3750000   0.3750000), wk =   0.0078125
        k(  129) = (   0.3750000   0.3750000  -0.5000000), wk =   0.0039063
        k(  130) = (   0.3750000  -0.5000000  -0.0000000), wk =   0.0078125
        k(  131) = (   0.3750000  -0.5000000   0.1250000), wk =   0.0078125
        k(  132) = (   0.3750000  -0.5000000   0.2500000), wk =   0.0078125
        k(  133) = (   0.3750000  -0.5000000   0.3750000), wk =   0.0078125
        k(  134) = (   0.3750000  -0.5000000  -0.5000000), wk =   0.0078125
        k(  135) = (   0.3750000  -0.5000000  -0.3750000), wk =   0.0078125
        k(  136) = (   0.3750000  -0.5000000  -0.2500000), wk =   0.0078125
        k(  137) = (   0.3750000  -0.5000000  -0.1250000), wk =   0.0078125
        k(  138) = (   0.3750000  -0.3750000   0.0000000), wk =   0.0039063
        k(  139) = (   0.3750000  -0.3750000   0.1250000), wk =   0.0039063
        k(  140) = (   0.3750000  -0.3750000   0.2500000), wk =   0.0039063
        k(  141) = (   0.3750000  -0.3750000   0.3750000), wk =   0.0039063
        k(  142) = (   0.3750000  -0.3750000  -0.5000000), wk =   0.0039063
        k(  143) = (   0.3750000  -0.3750000  -0.3750000), wk =   0.0039063
        k(  144) = (   0.3750000  -0.3750000  -0.2500000), wk =   0.0039063
        k(  145) = (   0.3750000  -0.3750000  -0.1250000), wk =   0.0039063
        k(  146) = (  -0.5000000  -0.5000000   0.0000000), wk =   0.0019531
        k(  147) = (  -0.5000000  -0.5000000   0.1250000), wk =   0.0039063
        k(  148) = (  -0.5000000  -0.5000000   0.2500000), wk =   0.0039063
        k(  149) = (  -0.5000000  -0.5000000   0.3750000), wk =   0.0039063
        k(  150) = (  -0.5000000  -0.5000000  -0.5000000), wk =   0.0019531

     Dense  grid:   255401 G-vectors     FFT dimensions: (  90,  90,  90)

     Smooth grid:    90287 G-vectors     FFT dimensions: (  64,  64,  64)

     Dynamical RAM for                 wfc:       8.27 MB

     Dynamical RAM for     wfc (w. buffer):    2488.76 MB

     Dynamical RAM for           str. fact:      11.69 MB

     Dynamical RAM for           local pot:       0.00 MB

     Dynamical RAM for          nlocal pot:      17.23 MB

     Dynamical RAM for                qrad:       5.27 MB

     Dynamical RAM for          rho,v,vnew:      56.75 MB

     Dynamical RAM for               rhoin:      18.92 MB

     Dynamical RAM for            rho*nmix:     124.71 MB

     Dynamical RAM for           G-vectors:      15.30 MB

     Dynamical RAM for          h,s,v(r/c):       0.42 MB

     Dynamical RAM for          <psi|beta>:       0.07 MB

     Dynamical RAM for                 psi:      16.54 MB

     Dynamical RAM for                hpsi:      16.54 MB

     Dynamical RAM for                spsi:      16.54 MB

     Dynamical RAM for      wfcinit/wfcrot:      17.28 MB

     Dynamical RAM for           addusdens:     752.14 MB

     Dynamical RAM for          addusforce:     791.16 MB

     Dynamical RAM for         addusstress:     789.16 MB

     Estimated static dynamical RAM per process >       2.60 GB

     Estimated max dynamical RAM per process >       3.49 GB
     Generating pointlists ...
     new r_m :   0.1266 (alat units)  1.5977 (a.u.) for type    1
     new r_m :   0.1548 (alat units)  1.9529 (a.u.) for type    2
     new r_m :   0.1266 (alat units)  1.5977 (a.u.) for type    3

     Initial potential from superposition of free atoms

     starting charge      77.9999, renormalised to      80.0000
     Starting wfcs are   50 randomized atomic wfcs

     total cpu time spent up to now is       13.3 secs

     Self-consistent Calculation
[tb_dev] Currently allocated     7.85E+00 Mbytes, locked:    0 /  12
[tb_pin] Currently allocated     0.00E+00 Mbytes, locked:    0 /   0

     iteration #  1     ecut=    60.00 Ry     beta= 0.40
     Davidson diagonalization with overlap

---- Real-time Memory Report at c_bands before calling an iterative solver
          3501 MiB given to the printing process from OS
          -796 MiB allocation reported by mallinfo(arena+hblkhd)
         56338 MiB available memory on the node where the printing process lives
     GPU memory used/free/total (MiB): 1694 / 14586 / 16280
------------------
     ethr =  1.00E-02,  avg # of iterations =  2.2

     total cpu time spent up to now is       28.0 secs

     total energy              =    -647.63794069 Ry
     estimated scf accuracy    <       1.72374865 Ry

     total magnetization       =     4.00 Bohr mag/cell
     absolute magnetization    =     4.37 Bohr mag/cell
[tb_dev] Currently allocated     7.85E+00 Mbytes, locked:    0 /  10
[tb_pin] Currently allocated     0.00E+00 Mbytes, locked:    0 /   0

     iteration #  2     ecut=    60.00 Ry     beta= 0.40
     Davidson diagonalization with overlap

---- Real-time Memory Report at c_bands before calling an iterative solver
          3589 MiB given to the printing process from OS
          -741 MiB allocation reported by mallinfo(arena+hblkhd)
         56279 MiB available memory on the node where the printing process lives
     GPU memory used/free/total (MiB): 3002 / 13278 / 16280
------------------
     ethr =  2.15E-03,  avg # of iterations =  2.0

     total cpu time spent up to now is       44.3 secs

     total energy              =    -646.92766275 Ry
     estimated scf accuracy    <      14.90435732 Ry

     total magnetization       =     1.73 Bohr mag/cell
     absolute magnetization    =     2.06 Bohr mag/cell
[tb_dev] Currently allocated     7.85E+00 Mbytes, locked:    0 /  10
[tb_pin] Currently allocated     0.00E+00 Mbytes, locked:    0 /   0

     iteration #  3     ecut=    60.00 Ry     beta= 0.40
     Davidson diagonalization with overlap

---- Real-time Memory Report at c_bands before calling an iterative solver
          3598 MiB given to the printing process from OS
          -732 MiB allocation reported by mallinfo(arena+hblkhd)
         56272 MiB available memory on the node where the printing process lives
     GPU memory used/free/total (MiB): 3030 / 13250 / 16280
------------------
     ethr =  2.15E-03,  avg # of iterations =  2.0

     total cpu time spent up to now is       59.5 secs

     total energy              =    -648.19852291 Ry
     estimated scf accuracy    <       0.78013854 Ry

     total magnetization       =     4.03 Bohr mag/cell
     absolute magnetization    =     4.35 Bohr mag/cell
[tb_dev] Currently allocated     7.85E+00 Mbytes, locked:    0 /  10
[tb_pin] Currently allocated     0.00E+00 Mbytes, locked:    0 /   0

     iteration #  4     ecut=    60.00 Ry     beta= 0.40
     Davidson diagonalization with overlap

---- Real-time Memory Report at c_bands before calling an iterative solver
          3600 MiB given to the printing process from OS
          -730 MiB allocation reported by mallinfo(arena+hblkhd)
         56270 MiB available memory on the node where the printing process lives
     GPU memory used/free/total (MiB): 3030 / 13250 / 16280
------------------
     ethr =  9.75E-04,  avg # of iterations =  1.0

     total cpu time spent up to now is       72.6 secs

     total energy              =    -648.26940717 Ry
     estimated scf accuracy    <       0.19685683 Ry

     total magnetization       =     5.81 Bohr mag/cell
     absolute magnetization    =     5.93 Bohr mag/cell
[tb_dev] Currently allocated     7.85E+00 Mbytes, locked:    0 /  10
[tb_pin] Currently allocated     0.00E+00 Mbytes, locked:    0 /   0

     iteration #  5     ecut=    60.00 Ry     beta= 0.40
     Davidson diagonalization with overlap

---- Real-time Memory Report at c_bands before calling an iterative solver
          3609 MiB given to the printing process from OS
          -721 MiB allocation reported by mallinfo(arena+hblkhd)
         56262 MiB available memory on the node where the printing process lives
     GPU memory used/free/total (MiB): 3030 / 13250 / 16280
------------------
     ethr =  2.46E-04,  avg # of iterations =  1.0

     total cpu time spent up to now is       85.6 secs

     total energy              =    -648.31630401 Ry
     estimated scf accuracy    <       0.09197045 Ry

     total magnetization       =     5.53 Bohr mag/cell
     absolute magnetization    =     5.67 Bohr mag/cell
[tb_dev] Currently allocated     7.85E+00 Mbytes, locked:    0 /  10
[tb_pin] Currently allocated     0.00E+00 Mbytes, locked:    0 /   0

     iteration #  6     ecut=    60.00 Ry     beta= 0.40
     Davidson diagonalization with overlap

---- Real-time Memory Report at c_bands before calling an iterative solver
          3617 MiB given to the printing process from OS
          -713 MiB allocation reported by mallinfo(arena+hblkhd)
         56254 MiB available memory on the node where the printing process lives
     GPU memory used/free/total (MiB): 3030 / 13250 / 16280
------------------
     ethr =  1.15E-04,  avg # of iterations =  1.7

     total cpu time spent up to now is       99.6 secs

     total energy              =    -648.34357285 Ry
     estimated scf accuracy    <       0.05786201 Ry

     total magnetization       =     5.95 Bohr mag/cell
     absolute magnetization    =     6.01 Bohr mag/cell
[tb_dev] Currently allocated     7.85E+00 Mbytes, locked:    0 /  10
[tb_pin] Currently allocated     0.00E+00 Mbytes, locked:    0 /   0

     iteration #  7     ecut=    60.00 Ry     beta= 0.40
     Davidson diagonalization with overlap

---- Real-time Memory Report at c_bands before calling an iterative solver
          3622 MiB given to the printing process from OS
          -708 MiB allocation reported by mallinfo(arena+hblkhd)
         56250 MiB available memory on the node where the printing process lives
     GPU memory used/free/total (MiB): 3030 / 13250 / 16280
------------------
     ethr =  7.23E-05,  avg # of iterations =  1.0

     total cpu time spent up to now is      112.5 secs

     total energy              =    -648.35649658 Ry
     estimated scf accuracy    <       0.04216243 Ry

     total magnetization       =     5.90 Bohr mag/cell
     absolute magnetization    =     5.96 Bohr mag/cell
[tb_dev] Currently allocated     7.85E+00 Mbytes, locked:    0 /  10
[tb_pin] Currently allocated     0.00E+00 Mbytes, locked:    0 /   0

     iteration #  8     ecut=    60.00 Ry     beta= 0.40
     Davidson diagonalization with overlap

---- Real-time Memory Report at c_bands before calling an iterative solver
          3625 MiB given to the printing process from OS
          -705 MiB allocation reported by mallinfo(arena+hblkhd)
         56248 MiB available memory on the node where the printing process lives
     GPU memory used/free/total (MiB): 3030 / 13250 / 16280
------------------
     ethr =  5.27E-05,  avg # of iterations =  1.6

     total cpu time spent up to now is      126.7 secs

     total energy              =    -648.35386251 Ry
     estimated scf accuracy    <       0.10159597 Ry

     total magnetization       =     5.53 Bohr mag/cell
     absolute magnetization    =     5.88 Bohr mag/cell
[tb_dev] Currently allocated     7.85E+00 Mbytes, locked:    0 /  10
[tb_pin] Currently allocated     0.00E+00 Mbytes, locked:    0 /   0

     iteration #  9     ecut=    60.00 Ry     beta= 0.40
     Davidson diagonalization with overlap

---- Real-time Memory Report at c_bands before calling an iterative solver
          3634 MiB given to the printing process from OS
          -696 MiB allocation reported by mallinfo(arena+hblkhd)
         56239 MiB available memory on the node where the printing process lives
     GPU memory used/free/total (MiB): 3030 / 13250 / 16280
------------------
     ethr =  5.27E-05,  avg # of iterations =  1.0

     total cpu time spent up to now is      140.0 secs

     total energy              =    -648.36127292 Ry
     estimated scf accuracy    <       0.00994498 Ry

     total magnetization       =     5.31 Bohr mag/cell
     absolute magnetization    =     5.89 Bohr mag/cell
[tb_dev] Currently allocated     7.85E+00 Mbytes, locked:    0 /  10
[tb_pin] Currently allocated     0.00E+00 Mbytes, locked:    0 /   0

     iteration # 10     ecut=    60.00 Ry     beta= 0.40
     Davidson diagonalization with overlap

---- Real-time Memory Report at c_bands before calling an iterative solver
          3639 MiB given to the printing process from OS
          -691 MiB allocation reported by mallinfo(arena+hblkhd)
         56233 MiB available memory on the node where the printing process lives
     GPU memory used/free/total (MiB): 3030 / 13250 / 16280
------------------
     ethr =  1.24E-05,  avg # of iterations =  2.0

     total cpu time spent up to now is      154.5 secs

     total energy              =    -648.36169198 Ry
     estimated scf accuracy    <       0.03329891 Ry

     total magnetization       =     4.84 Bohr mag/cell
     absolute magnetization    =     6.28 Bohr mag/cell
[tb_dev] Currently allocated     7.85E+00 Mbytes, locked:    0 /  10
[tb_pin] Currently allocated     0.00E+00 Mbytes, locked:    0 /   0

     iteration # 11     ecut=    60.00 Ry     beta= 0.40
     Davidson diagonalization with overlap

---- Real-time Memory Report at c_bands before calling an iterative solver
          3639 MiB given to the printing process from OS
          -691 MiB allocation reported by mallinfo(arena+hblkhd)
         56234 MiB available memory on the node where the printing process lives
     GPU memory used/free/total (MiB): 3030 / 13250 / 16280
------------------
     ethr =  1.24E-05,  avg # of iterations =  1.0

     total cpu time spent up to now is      167.5 secs

     total energy              =    -648.35966048 Ry
     estimated scf accuracy    <       0.04223632 Ry

     total magnetization       =     5.69 Bohr mag/cell
     absolute magnetization    =     5.85 Bohr mag/cell
[tb_dev] Currently allocated     7.85E+00 Mbytes, locked:    0 /  10
[tb_pin] Currently allocated     0.00E+00 Mbytes, locked:    0 /   0

     iteration # 12     ecut=    60.00 Ry     beta= 0.40
     Davidson diagonalization with overlap

---- Real-time Memory Report at c_bands before calling an iterative solver
          3645 MiB given to the printing process from OS
          -691 MiB allocation reported by mallinfo(arena+hblkhd)
         56234 MiB available memory on the node where the printing process lives
     GPU memory used/free/total (MiB): 3030 / 13250 / 16280
------------------
     ethr =  1.24E-05,  avg # of iterations =  1.1

     total cpu time spent up to now is      180.6 secs

     total energy              =    -648.36028240 Ry
     estimated scf accuracy    <       0.00649759 Ry

     total magnetization       =     5.77 Bohr mag/cell
     absolute magnetization    =     5.90 Bohr mag/cell
[tb_dev] Currently allocated     7.85E+00 Mbytes, locked:    0 /  10
[tb_pin] Currently allocated     0.00E+00 Mbytes, locked:    0 /   0

     iteration # 13     ecut=    60.00 Ry     beta= 0.40
     Davidson diagonalization with overlap

---- Real-time Memory Report at c_bands before calling an iterative solver
          3645 MiB given to the printing process from OS
          -691 MiB allocation reported by mallinfo(arena+hblkhd)
         56234 MiB available memory on the node where the printing process lives
     GPU memory used/free/total (MiB): 3030 / 13250 / 16280
------------------
     ethr =  8.12E-06,  avg # of iterations =  1.3

     total cpu time spent up to now is      194.0 secs

     total energy              =    -648.36048862 Ry
     estimated scf accuracy    <       0.00370799 Ry

     total magnetization       =     5.67 Bohr mag/cell
     absolute magnetization    =     5.90 Bohr mag/cell
[tb_dev] Currently allocated     7.85E+00 Mbytes, locked:    0 /  10
[tb_pin] Currently allocated     0.00E+00 Mbytes, locked:    0 /   0

     iteration # 14     ecut=    60.00 Ry     beta= 0.40
     Davidson diagonalization with overlap

---- Real-time Memory Report at c_bands before calling an iterative solver
          3645 MiB given to the printing process from OS
          -691 MiB allocation reported by mallinfo(arena+hblkhd)
         56235 MiB available memory on the node where the printing process lives
     GPU memory used/free/total (MiB): 3030 / 13250 / 16280
------------------
     ethr =  4.63E-06,  avg # of iterations =  2.0

     total cpu time spent up to now is      208.3 secs

     total energy              =    -648.36044465 Ry
     estimated scf accuracy    <       0.00029444 Ry

     total magnetization       =     5.64 Bohr mag/cell
     absolute magnetization    =     5.88 Bohr mag/cell
[tb_dev] Currently allocated     7.85E+00 Mbytes, locked:    0 /  10
[tb_pin] Currently allocated     0.00E+00 Mbytes, locked:    0 /   0

     iteration # 15     ecut=    60.00 Ry     beta= 0.40
     Davidson diagonalization with overlap

---- Real-time Memory Report at c_bands before calling an iterative solver
          3645 MiB given to the printing process from OS
          -691 MiB allocation reported by mallinfo(arena+hblkhd)
         56235 MiB available memory on the node where the printing process lives
     GPU memory used/free/total (MiB): 3030 / 13250 / 16280
------------------
     ethr =  3.68E-07,  avg # of iterations =  4.0

     total cpu time spent up to now is      227.0 secs

     total energy              =    -648.36051225 Ry
     estimated scf accuracy    <       0.00055474 Ry

     total magnetization       =     5.73 Bohr mag/cell
     absolute magnetization    =     6.04 Bohr mag/cell
[tb_dev] Currently allocated     7.85E+00 Mbytes, locked:    0 /  10
[tb_pin] Currently allocated     0.00E+00 Mbytes, locked:    0 /   0

     iteration # 16     ecut=    60.00 Ry     beta= 0.40
     Davidson diagonalization with overlap

---- Real-time Memory Report at c_bands before calling an iterative solver
          3645 MiB given to the printing process from OS
          -691 MiB allocation reported by mallinfo(arena+hblkhd)
         56235 MiB available memory on the node where the printing process lives
     GPU memory used/free/total (MiB): 3030 / 13250 / 16280
------------------
     ethr =  3.68E-07,  avg # of iterations =  1.7

     total cpu time spent up to now is      241.2 secs

     total energy              =    -648.36043011 Ry
     estimated scf accuracy    <       0.00020773 Ry

     total magnetization       =     5.67 Bohr mag/cell
     absolute magnetization    =     6.04 Bohr mag/cell
[tb_dev] Currently allocated     7.85E+00 Mbytes, locked:    0 /  10
[tb_pin] Currently allocated     0.00E+00 Mbytes, locked:    0 /   0

     iteration # 17     ecut=    60.00 Ry     beta= 0.40
     Davidson diagonalization with overlap

---- Real-time Memory Report at c_bands before calling an iterative solver
          3645 MiB given to the printing process from OS
          -691 MiB allocation reported by mallinfo(arena+hblkhd)
         56235 MiB available memory on the node where the printing process lives
     GPU memory used/free/total (MiB): 3030 / 13250 / 16280
------------------
     ethr =  2.60E-07,  avg # of iterations =  1.6

     total cpu time spent up to now is      255.4 secs

     total energy              =    -648.36016723 Ry
     estimated scf accuracy    <       0.00027414 Ry

     total magnetization       =     5.70 Bohr mag/cell
     absolute magnetization    =     6.09 Bohr mag/cell
[tb_dev] Currently allocated     7.85E+00 Mbytes, locked:    0 /  10
[tb_pin] Currently allocated     0.00E+00 Mbytes, locked:    0 /   0

     iteration # 18     ecut=    60.00 Ry     beta= 0.40
     Davidson diagonalization with overlap

---- Real-time Memory Report at c_bands before calling an iterative solver
          3645 MiB given to the printing process from OS
          -691 MiB allocation reported by mallinfo(arena+hblkhd)
         56235 MiB available memory on the node where the printing process lives
     GPU memory used/free/total (MiB): 3030 / 13250 / 16280
------------------
     ethr =  2.60E-07,  avg # of iterations =  2.0

     total cpu time spent up to now is      270.6 secs

     total energy              =    -648.36025608 Ry
     estimated scf accuracy    <       0.00044230 Ry

     total magnetization       =     5.76 Bohr mag/cell
     absolute magnetization    =     6.18 Bohr mag/cell
[tb_dev] Currently allocated     7.85E+00 Mbytes, locked:    0 /  10
[tb_pin] Currently allocated     0.00E+00 Mbytes, locked:    0 /   0

     iteration # 19     ecut=    60.00 Ry     beta= 0.40
     Davidson diagonalization with overlap

---- Real-time Memory Report at c_bands before calling an iterative solver
          3645 MiB given to the printing process from OS
          -691 MiB allocation reported by mallinfo(arena+hblkhd)
         56235 MiB available memory on the node where the printing process lives
     GPU memory used/free/total (MiB): 3030 / 13250 / 16280
------------------
     ethr =  2.60E-07,  avg # of iterations =  1.0

     total cpu time spent up to now is      283.7 secs

     total energy              =    -648.36037700 Ry
     estimated scf accuracy    <       0.00041959 Ry

     total magnetization       =     5.75 Bohr mag/cell
     absolute magnetization    =     6.17 Bohr mag/cell
[tb_dev] Currently allocated     7.85E+00 Mbytes, locked:    0 /  10
[tb_pin] Currently allocated     0.00E+00 Mbytes, locked:    0 /   0

     iteration # 20     ecut=    60.00 Ry     beta= 0.40
     Davidson diagonalization with overlap

---- Real-time Memory Report at c_bands before calling an iterative solver
          3645 MiB given to the printing process from OS
          -691 MiB allocation reported by mallinfo(arena+hblkhd)
         56236 MiB available memory on the node where the printing process lives
     GPU memory used/free/total (MiB): 3030 / 13250 / 16280
------------------
     ethr =  2.60E-07,  avg # of iterations =  2.1

     total cpu time spent up to now is      300.3 secs

     total energy              =    -648.36069514 Ry
     estimated scf accuracy    <       0.00043763 Ry

     total magnetization       =     5.60 Bohr mag/cell
     absolute magnetization    =     5.98 Bohr mag/cell
[tb_dev] Currently allocated     7.85E+00 Mbytes, locked:    0 /  10
[tb_pin] Currently allocated     0.00E+00 Mbytes, locked:    0 /   0

     iteration # 21     ecut=    60.00 Ry     beta= 0.40
     Davidson diagonalization with overlap

---- Real-time Memory Report at c_bands before calling an iterative solver
          3645 MiB given to the printing process from OS
          -691 MiB allocation reported by mallinfo(arena+hblkhd)
         56236 MiB available memory on the node where the printing process lives
     GPU memory used/free/total (MiB): 3030 / 13250 / 16280
------------------
     ethr =  2.60E-07,  avg # of iterations =  2.4

     total cpu time spent up to now is      317.1 secs

     total energy              =    -648.36033842 Ry
     estimated scf accuracy    <       0.00029038 Ry

     total magnetization       =     5.51 Bohr mag/cell
     absolute magnetization    =     5.88 Bohr mag/cell
[tb_dev] Currently allocated     7.85E+00 Mbytes, locked:    0 /  10
[tb_pin] Currently allocated     0.00E+00 Mbytes, locked:    0 /   0

     iteration # 22     ecut=    60.00 Ry     beta= 0.40
     Davidson diagonalization with overlap

---- Real-time Memory Report at c_bands before calling an iterative solver
          3645 MiB given to the printing process from OS
          -691 MiB allocation reported by mallinfo(arena+hblkhd)
         56236 MiB available memory on the node where the printing process lives
     GPU memory used/free/total (MiB): 3030 / 13250 / 16280
------------------
     ethr =  2.60E-07,  avg # of iterations =  2.1

     total cpu time spent up to now is      333.3 secs

     total energy              =    -648.35956110 Ry
     estimated scf accuracy    <       0.00023354 Ry

     total magnetization       =     5.63 Bohr mag/cell
     absolute magnetization    =     6.01 Bohr mag/cell
[tb_dev] Currently allocated     7.85E+00 Mbytes, locked:    0 /  10
[tb_pin] Currently allocated     0.00E+00 Mbytes, locked:    0 /   0

     iteration # 23     ecut=    60.00 Ry     beta= 0.40
     Davidson diagonalization with overlap

---- Real-time Memory Report at c_bands before calling an iterative solver
          3645 MiB given to the printing process from OS
          -691 MiB allocation reported by mallinfo(arena+hblkhd)
         56236 MiB available memory on the node where the printing process lives
     GPU memory used/free/total (MiB): 3030 / 13250 / 16280
------------------
     ethr =  2.60E-07,  avg # of iterations =  2.8

     total cpu time spent up to now is      351.9 secs

     total energy              =    -648.36027265 Ry
     estimated scf accuracy    <       0.00064379 Ry

     total magnetization       =     5.75 Bohr mag/cell
     absolute magnetization    =     6.19 Bohr mag/cell
[tb_dev] Currently allocated     7.85E+00 Mbytes, locked:    0 /  10
[tb_pin] Currently allocated     0.00E+00 Mbytes, locked:    0 /   0

     iteration # 24     ecut=    60.00 Ry     beta= 0.40
     Davidson diagonalization with overlap

---- Real-time Memory Report at c_bands before calling an iterative solver
          3645 MiB given to the printing process from OS
          -691 MiB allocation reported by mallinfo(arena+hblkhd)
         56236 MiB available memory on the node where the printing process lives
     GPU memory used/free/total (MiB): 3030 / 13250 / 16280
------------------
     ethr =  2.60E-07,  avg # of iterations =  2.0

     total cpu time spent up to now is      367.4 secs

     total energy              =    -648.36049216 Ry
     estimated scf accuracy    <       0.00042263 Ry

     total magnetization       =     5.70 Bohr mag/cell
     absolute magnetization    =     6.12 Bohr mag/cell
[tb_dev] Currently allocated     7.85E+00 Mbytes, locked:    0 /  10
[tb_pin] Currently allocated     0.00E+00 Mbytes, locked:    0 /   0

     iteration # 25     ecut=    60.00 Ry     beta= 0.40
     Davidson diagonalization with overlap

---- Real-time Memory Report at c_bands before calling an iterative solver
          3645 MiB given to the printing process from OS
          -691 MiB allocation reported by mallinfo(arena+hblkhd)
         56236 MiB available memory on the node where the printing process lives
     GPU memory used/free/total (MiB): 3030 / 13250 / 16280
------------------
     ethr =  2.60E-07,  avg # of iterations =  2.0

     total cpu time spent up to now is      382.2 secs

     total energy              =    -648.36064458 Ry
     estimated scf accuracy    <       0.00034273 Ry

     total magnetization       =     5.64 Bohr mag/cell
     absolute magnetization    =     6.09 Bohr mag/cell
[tb_dev] Currently allocated     7.85E+00 Mbytes, locked:    0 /  10
[tb_pin] Currently allocated     0.00E+00 Mbytes, locked:    0 /   0

     iteration # 26     ecut=    60.00 Ry     beta= 0.40
     Davidson diagonalization with overlap

---- Real-time Memory Report at c_bands before calling an iterative solver
          3645 MiB given to the printing process from OS
          -691 MiB allocation reported by mallinfo(arena+hblkhd)
         56236 MiB available memory on the node where the printing process lives
     GPU memory used/free/total (MiB): 3030 / 13250 / 16280
------------------
     ethr =  2.60E-07,  avg # of iterations =  1.6

     total cpu time spent up to now is      396.6 secs

     total energy              =    -648.36055691 Ry
     estimated scf accuracy    <       0.00028641 Ry

     total magnetization       =     5.59 Bohr mag/cell
     absolute magnetization    =     6.03 Bohr mag/cell
[tb_dev] Currently allocated     7.85E+00 Mbytes, locked:    0 /  10
[tb_pin] Currently allocated     0.00E+00 Mbytes, locked:    0 /   0

     iteration # 27     ecut=    60.00 Ry     beta= 0.40
     Davidson diagonalization with overlap

---- Real-time Memory Report at c_bands before calling an iterative solver
          3645 MiB given to the printing process from OS
          -691 MiB allocation reported by mallinfo(arena+hblkhd)
         56237 MiB available memory on the node where the printing process lives
     GPU memory used/free/total (MiB): 3030 / 13250 / 16280
------------------
     ethr =  2.60E-07,  avg # of iterations =  1.5

     total cpu time spent up to now is      410.4 secs

     total energy              =    -648.36059267 Ry
     estimated scf accuracy    <       0.00029396 Ry

     total magnetization       =     5.63 Bohr mag/cell
     absolute magnetization    =     6.04 Bohr mag/cell
[tb_dev] Currently allocated     7.85E+00 Mbytes, locked:    0 /  10
[tb_pin] Currently allocated     0.00E+00 Mbytes, locked:    0 /   0

     iteration # 28     ecut=    60.00 Ry     beta= 0.40
     Davidson diagonalization with overlap

---- Real-time Memory Report at c_bands before calling an iterative solver
          3645 MiB given to the printing process from OS
          -691 MiB allocation reported by mallinfo(arena+hblkhd)
         56237 MiB available memory on the node where the printing process lives
     GPU memory used/free/total (MiB): 3030 / 13250 / 16280
------------------
     ethr =  2.60E-07,  avg # of iterations =  2.5

     total cpu time spent up to now is      428.1 secs

     total energy              =    -648.36124614 Ry
     estimated scf accuracy    <       0.00045928 Ry

     total magnetization       =     5.42 Bohr mag/cell
     absolute magnetization    =     5.89 Bohr mag/cell
[tb_dev] Currently allocated     7.85E+00 Mbytes, locked:    0 /  10
[tb_pin] Currently allocated     0.00E+00 Mbytes, locked:    0 /   0

     iteration # 29     ecut=    60.00 Ry     beta= 0.40
     Davidson diagonalization with overlap

---- Real-time Memory Report at c_bands before calling an iterative solver
          3645 MiB given to the printing process from OS
          -691 MiB allocation reported by mallinfo(arena+hblkhd)
         56237 MiB available memory on the node where the printing process lives
     GPU memory used/free/total (MiB): 3030 / 13250 / 16280
------------------
     ethr =  2.60E-07,  avg # of iterations =  1.5

     total cpu time spent up to now is      442.2 secs

     total energy              =    -648.36179317 Ry
     estimated scf accuracy    <       0.00098209 Ry

     total magnetization       =     5.35 Bohr mag/cell
     absolute magnetization    =     5.86 Bohr mag/cell
[tb_dev] Currently allocated     7.85E+00 Mbytes, locked:    0 /  10
[tb_pin] Currently allocated     0.00E+00 Mbytes, locked:    0 /   0

     iteration # 30     ecut=    60.00 Ry     beta= 0.40
     Davidson diagonalization with overlap

---- Real-time Memory Report at c_bands before calling an iterative solver
          3645 MiB given to the printing process from OS
          -691 MiB allocation reported by mallinfo(arena+hblkhd)
         56237 MiB available memory on the node where the printing process lives
     GPU memory used/free/total (MiB): 3030 / 13250 / 16280
------------------
     ethr =  2.60E-07,  avg # of iterations =  2.5

     total cpu time spent up to now is      460.0 secs

     total energy              =    -648.36260668 Ry
     estimated scf accuracy    <       0.00603558 Ry

     total magnetization       =     5.00 Bohr mag/cell
     absolute magnetization    =     6.06 Bohr mag/cell
[tb_dev] Currently allocated     7.85E+00 Mbytes, locked:    0 /  10
[tb_pin] Currently allocated     0.00E+00 Mbytes, locked:    0 /   0

     iteration # 31     ecut=    60.00 Ry     beta= 0.40
     Davidson diagonalization with overlap

---- Real-time Memory Report at c_bands before calling an iterative solver
          3645 MiB given to the printing process from OS
          -691 MiB allocation reported by mallinfo(arena+hblkhd)
         56237 MiB available memory on the node where the printing process lives
     GPU memory used/free/total (MiB): 3030 / 13250 / 16280
------------------
     ethr =  2.60E-07,  avg # of iterations =  1.0

     total cpu time spent up to now is      473.1 secs

     total energy              =    -648.35519513 Ry
     estimated scf accuracy    <       0.00609494 Ry

     total magnetization       =     5.01 Bohr mag/cell
     absolute magnetization    =     6.05 Bohr mag/cell
[tb_dev] Currently allocated     7.85E+00 Mbytes, locked:    0 /  10
[tb_pin] Currently allocated     0.00E+00 Mbytes, locked:    0 /   0

     iteration # 32     ecut=    60.00 Ry     beta= 0.40
     Davidson diagonalization with overlap

---- Real-time Memory Report at c_bands before calling an iterative solver
          3645 MiB given to the printing process from OS
          -691 MiB allocation reported by mallinfo(arena+hblkhd)
         56237 MiB available memory on the node where the printing process lives
     GPU memory used/free/total (MiB): 3030 / 13250 / 16280
------------------
     ethr =  2.60E-07,  avg # of iterations =  3.8

     total cpu time spent up to now is      494.6 secs

     total energy              =    -648.35978150 Ry
     estimated scf accuracy    <       0.00038241 Ry

     total magnetization       =     5.70 Bohr mag/cell
     absolute magnetization    =     6.13 Bohr mag/cell
[tb_dev] Currently allocated     7.85E+00 Mbytes, locked:    0 /  10
[tb_pin] Currently allocated     0.00E+00 Mbytes, locked:    0 /   0

     iteration # 33     ecut=    60.00 Ry     beta= 0.40
     Davidson diagonalization with overlap

---- Real-time Memory Report at c_bands before calling an iterative solver
          3645 MiB given to the printing process from OS
          -691 MiB allocation reported by mallinfo(arena+hblkhd)
         56237 MiB available memory on the node where the printing process lives
     GPU memory used/free/total (MiB): 3030 / 13250 / 16280
------------------
     ethr =  2.60E-07,  avg # of iterations =  2.5

     total cpu time spent up to now is      512.6 secs

     total energy              =    -648.35930804 Ry
     estimated scf accuracy    <       0.00058414 Ry

     total magnetization       =     5.79 Bohr mag/cell
     absolute magnetization    =     6.23 Bohr mag/cell
[tb_dev] Currently allocated     7.85E+00 Mbytes, locked:    0 /  10
[tb_pin] Currently allocated     0.00E+00 Mbytes, locked:    0 /   0

     iteration # 34     ecut=    60.00 Ry     beta= 0.40
     Davidson diagonalization with overlap

---- Real-time Memory Report at c_bands before calling an iterative solver
          3645 MiB given to the printing process from OS
          -691 MiB allocation reported by mallinfo(arena+hblkhd)
         56235 MiB available memory on the node where the printing process lives
     GPU memory used/free/total (MiB): 3030 / 13250 / 16280
------------------
     ethr =  2.60E-07,  avg # of iterations =  2.2

     total cpu time spent up to now is      529.0 secs

     total energy              =    -648.35906236 Ry
     estimated scf accuracy    <       0.00101438 Ry

     total magnetization       =     5.85 Bohr mag/cell
     absolute magnetization    =     6.32 Bohr mag/cell
[tb_dev] Currently allocated     7.85E+00 Mbytes, locked:    0 /  10
[tb_pin] Currently allocated     0.00E+00 Mbytes, locked:    0 /   0

     iteration # 35     ecut=    60.00 Ry     beta= 0.40
     Davidson diagonalization with overlap

---- Real-time Memory Report at c_bands before calling an iterative solver
          3648 MiB given to the printing process from OS
          -691 MiB allocation reported by mallinfo(arena+hblkhd)
         56237 MiB available memory on the node where the printing process lives
     GPU memory used/free/total (MiB): 3030 / 13250 / 16280
------------------
     ethr =  2.60E-07,  avg # of iterations =  1.5

     total cpu time spent up to now is      543.2 secs

     total energy              =    -648.35884258 Ry
     estimated scf accuracy    <       0.00128236 Ry

     total magnetization       =     5.90 Bohr mag/cell
     absolute magnetization    =     6.37 Bohr mag/cell
[tb_dev] Currently allocated     7.85E+00 Mbytes, locked:    0 /  10
[tb_pin] Currently allocated     0.00E+00 Mbytes, locked:    0 /   0

     iteration # 36     ecut=    60.00 Ry     beta= 0.40
     Davidson diagonalization with overlap

---- Real-time Memory Report at c_bands before calling an iterative solver
          3648 MiB given to the printing process from OS
          -691 MiB allocation reported by mallinfo(arena+hblkhd)
         56237 MiB available memory on the node where the printing process lives
     GPU memory used/free/total (MiB): 3030 / 13250 / 16280
------------------
     ethr =  2.60E-07,  avg # of iterations =  1.3

     total cpu time spent up to now is      556.6 secs

     total energy              =    -648.35895031 Ry
     estimated scf accuracy    <       0.00148295 Ry

     total magnetization       =     5.93 Bohr mag/cell
     absolute magnetization    =     6.39 Bohr mag/cell
[tb_dev] Currently allocated     7.85E+00 Mbytes, locked:    0 /  10
[tb_pin] Currently allocated     0.00E+00 Mbytes, locked:    0 /   0

     iteration # 37     ecut=    60.00 Ry     beta= 0.40
     Davidson diagonalization with overlap

---- Real-time Memory Report at c_bands before calling an iterative solver
          3648 MiB given to the printing process from OS
          -691 MiB allocation reported by mallinfo(arena+hblkhd)
         56231 MiB available memory on the node where the printing process lives
     GPU memory used/free/total (MiB): 3030 / 13250 / 16280
------------------
     ethr =  2.60E-07,  avg # of iterations =  1.0

     total cpu time spent up to now is      569.8 secs

     total energy              =    -648.35872673 Ry
     estimated scf accuracy    <       0.00142238 Ry

     total magnetization       =     5.90 Bohr mag/cell
     absolute magnetization    =     6.38 Bohr mag/cell
[tb_dev] Currently allocated     7.85E+00 Mbytes, locked:    0 /  10
[tb_pin] Currently allocated     0.00E+00 Mbytes, locked:    0 /   0

     iteration # 38     ecut=    60.00 Ry     beta= 0.40
     Davidson diagonalization with overlap

---- Real-time Memory Report at c_bands before calling an iterative solver
          3648 MiB given to the printing process from OS
          -691 MiB allocation reported by mallinfo(arena+hblkhd)
         56235 MiB available memory on the node where the printing process lives
     GPU memory used/free/total (MiB): 3030 / 13250 / 16280
------------------
     ethr =  2.60E-07,  avg # of iterations =  1.0

     total cpu time spent up to now is      582.8 secs

     total energy              =    -648.35912289 Ry
     estimated scf accuracy    <       0.00174898 Ry

     total magnetization       =     5.90 Bohr mag/cell
     absolute magnetization    =     6.38 Bohr mag/cell
[tb_dev] Currently allocated     7.85E+00 Mbytes, locked:    0 /  10
[tb_pin] Currently allocated     0.00E+00 Mbytes, locked:    0 /   0

     iteration # 39     ecut=    60.00 Ry     beta= 0.40
     Davidson diagonalization with overlap

---- Real-time Memory Report at c_bands before calling an iterative solver
          3648 MiB given to the printing process from OS
          -691 MiB allocation reported by mallinfo(arena+hblkhd)
         56236 MiB available memory on the node where the printing process lives
     GPU memory used/free/total (MiB): 3030 / 13250 / 16280
------------------
     ethr =  2.60E-07,  avg # of iterations =  1.5

     total cpu time spent up to now is      596.9 secs

     total energy              =    -648.35915627 Ry
     estimated scf accuracy    <       0.00129878 Ry

     total magnetization       =     5.88 Bohr mag/cell
     absolute magnetization    =     6.34 Bohr mag/cell
[tb_dev] Currently allocated     7.85E+00 Mbytes, locked:    0 /  10
[tb_pin] Currently allocated     0.00E+00 Mbytes, locked:    0 /   0

     iteration # 40     ecut=    60.00 Ry     beta= 0.40
     Davidson diagonalization with overlap

---- Real-time Memory Report at c_bands before calling an iterative solver
          3648 MiB given to the printing process from OS
          -691 MiB allocation reported by mallinfo(arena+hblkhd)
         56235 MiB available memory on the node where the printing process lives
     GPU memory used/free/total (MiB): 3030 / 13250 / 16280
------------------
     ethr =  2.60E-07,  avg # of iterations =  1.0

     total cpu time spent up to now is      609.8 secs

     total energy              =    -648.35862666 Ry
     estimated scf accuracy    <       0.00128650 Ry

     total magnetization       =     5.88 Bohr mag/cell
     absolute magnetization    =     6.34 Bohr mag/cell
[tb_dev] Currently allocated     7.85E+00 Mbytes, locked:    0 /  10
[tb_pin] Currently allocated     0.00E+00 Mbytes, locked:    0 /   0

     iteration # 41     ecut=    60.00 Ry     beta= 0.40
     Davidson diagonalization with overlap

---- Real-time Memory Report at c_bands before calling an iterative solver
          3648 MiB given to the printing process from OS
          -691 MiB allocation reported by mallinfo(arena+hblkhd)
         56235 MiB available memory on the node where the printing process lives
     GPU memory used/free/total (MiB): 3030 / 13250 / 16280
------------------
     ethr =  2.60E-07,  avg # of iterations =  4.2

     total cpu time spent up to now is      632.5 secs

     total energy              =    -648.36109416 Ry
     estimated scf accuracy    <       0.00090312 Ry

     total magnetization       =     5.35 Bohr mag/cell
     absolute magnetization    =     5.97 Bohr mag/cell
[tb_dev] Currently allocated     7.85E+00 Mbytes, locked:    0 /  10
[tb_pin] Currently allocated     0.00E+00 Mbytes, locked:    0 /   0

     iteration # 42     ecut=    60.00 Ry     beta= 0.40
     Davidson diagonalization with overlap

---- Real-time Memory Report at c_bands before calling an iterative solver
          3648 MiB given to the printing process from OS
          -691 MiB allocation reported by mallinfo(arena+hblkhd)
         56236 MiB available memory on the node where the printing process lives
     GPU memory used/free/total (MiB): 3030 / 13250 / 16280
------------------
     ethr =  2.60E-07,  avg # of iterations =  1.0

     total cpu time spent up to now is      645.8 secs

     total energy              =    -648.36079924 Ry
     estimated scf accuracy    <       0.00087893 Ry

     total magnetization       =     5.36 Bohr mag/cell
     absolute magnetization    =     5.98 Bohr mag/cell
[tb_dev] Currently allocated     7.85E+00 Mbytes, locked:    0 /  10
[tb_pin] Currently allocated     0.00E+00 Mbytes, locked:    0 /   0

     iteration # 43     ecut=    60.00 Ry     beta= 0.40
     Davidson diagonalization with overlap

---- Real-time Memory Report at c_bands before calling an iterative solver
          3648 MiB given to the printing process from OS
          -691 MiB allocation reported by mallinfo(arena+hblkhd)
         56235 MiB available memory on the node where the printing process lives
     GPU memory used/free/total (MiB): 3030 / 13250 / 16280
------------------
     ethr =  2.60E-07,  avg # of iterations =  1.5

     total cpu time spent up to now is      659.8 secs

     total energy              =    -648.35992408 Ry
     estimated scf accuracy    <       0.00060838 Ry

     total magnetization       =     5.46 Bohr mag/cell
     absolute magnetization    =     6.05 Bohr mag/cell
[tb_dev] Currently allocated     7.85E+00 Mbytes, locked:    0 /  10
[tb_pin] Currently allocated     0.00E+00 Mbytes, locked:    0 /   0

     iteration # 44     ecut=    60.00 Ry     beta= 0.40
     Davidson diagonalization with overlap

---- Real-time Memory Report at c_bands before calling an iterative solver
          3648 MiB given to the printing process from OS
          -691 MiB allocation reported by mallinfo(arena+hblkhd)
         56236 MiB available memory on the node where the printing process lives
     GPU memory used/free/total (MiB): 3030 / 13250 / 16280
------------------
     ethr =  2.60E-07,  avg # of iterations =  2.5

     total cpu time spent up to now is      677.5 secs

     total energy              =    -648.36048074 Ry
     estimated scf accuracy    <       0.00054236 Ry

     total magnetization       =     5.64 Bohr mag/cell
     absolute magnetization    =     6.20 Bohr mag/cell
[tb_dev] Currently allocated     7.85E+00 Mbytes, locked:    0 /  10
[tb_pin] Currently allocated     0.00E+00 Mbytes, locked:    0 /   0

     iteration # 45     ecut=    60.00 Ry     beta= 0.40
     Davidson diagonalization with overlap

---- Real-time Memory Report at c_bands before calling an iterative solver
          3648 MiB given to the printing process from OS
          -691 MiB allocation reported by mallinfo(arena+hblkhd)
         56236 MiB available memory on the node where the printing process lives
     GPU memory used/free/total (MiB): 3030 / 13250 / 16280
------------------
     ethr =  2.60E-07,  avg # of iterations =  1.3

     total cpu time spent up to now is      691.0 secs

     total energy              =    -648.36062388 Ry
     estimated scf accuracy    <       0.00039070 Ry

     total magnetization       =     5.60 Bohr mag/cell
     absolute magnetization    =     6.16 Bohr mag/cell
[tb_dev] Currently allocated     7.85E+00 Mbytes, locked:    0 /  10
[tb_pin] Currently allocated     0.00E+00 Mbytes, locked:    0 /   0

     iteration # 46     ecut=    60.00 Ry     beta= 0.40
     Davidson diagonalization with overlap

---- Real-time Memory Report at c_bands before calling an iterative solver
          3648 MiB given to the printing process from OS
          -691 MiB allocation reported by mallinfo(arena+hblkhd)
         56236 MiB available memory on the node where the printing process lives
     GPU memory used/free/total (MiB): 3030 / 13250 / 16280
------------------
     ethr =  2.60E-07,  avg # of iterations =  1.5

     total cpu time spent up to now is      704.9 secs

     total energy              =    -648.36058066 Ry
     estimated scf accuracy    <       0.00031840 Ry

     total magnetization       =     5.55 Bohr mag/cell
     absolute magnetization    =     6.13 Bohr mag/cell
[tb_dev] Currently allocated     7.85E+00 Mbytes, locked:    0 /  10
[tb_pin] Currently allocated     0.00E+00 Mbytes, locked:    0 /   0

     iteration # 47     ecut=    60.00 Ry     beta= 0.40
     Davidson diagonalization with overlap

---- Real-time Memory Report at c_bands before calling an iterative solver
          3648 MiB given to the printing process from OS
          -691 MiB allocation reported by mallinfo(arena+hblkhd)
         56236 MiB available memory on the node where the printing process lives
     GPU memory used/free/total (MiB): 3030 / 13250 / 16280
------------------
     ethr =  2.60E-07,  avg # of iterations =  1.0

     total cpu time spent up to now is      718.0 secs

     total energy              =    -648.35425916 Ry
     estimated scf accuracy    <       0.00042715 Ry

     total magnetization       =     5.58 Bohr mag/cell
     absolute magnetization    =     6.13 Bohr mag/cell
[tb_dev] Currently allocated     7.85E+00 Mbytes, locked:    0 /  10
[tb_pin] Currently allocated     0.00E+00 Mbytes, locked:    0 /   0

     iteration # 48     ecut=    60.00 Ry     beta= 0.40
     Davidson diagonalization with overlap

---- Real-time Memory Report at c_bands before calling an iterative solver
          3648 MiB given to the printing process from OS
          -691 MiB allocation reported by mallinfo(arena+hblkhd)
         56234 MiB available memory on the node where the printing process lives
     GPU memory used/free/total (MiB): 3030 / 13250 / 16280
------------------
     ethr =  2.60E-07,  avg # of iterations =  4.0

     total cpu time spent up to now is      740.8 secs

     total energy              =    -648.35818153 Ry
     estimated scf accuracy    <       0.00426052 Ry

     total magnetization       =     5.95 Bohr mag/cell
     absolute magnetization    =     6.50 Bohr mag/cell
[tb_dev] Currently allocated     7.85E+00 Mbytes, locked:    0 /  10
[tb_pin] Currently allocated     0.00E+00 Mbytes, locked:    0 /   0

     iteration # 49     ecut=    60.00 Ry     beta= 0.40
     Davidson diagonalization with overlap

---- Real-time Memory Report at c_bands before calling an iterative solver
          3648 MiB given to the printing process from OS
          -691 MiB allocation reported by mallinfo(arena+hblkhd)
         56224 MiB available memory on the node where the printing process lives
     GPU memory used/free/total (MiB): 3030 / 13250 / 16280
------------------
     ethr =  2.60E-07,  avg # of iterations =  4.1

     total cpu time spent up to now is      763.8 secs

     total energy              =    -648.36065993 Ry
     estimated scf accuracy    <       0.00056530 Ry

     total magnetization       =     5.59 Bohr mag/cell
     absolute magnetization    =     6.15 Bohr mag/cell
[tb_dev] Currently allocated     7.85E+00 Mbytes, locked:    0 /  10
[tb_pin] Currently allocated     0.00E+00 Mbytes, locked:    0 /   0

     iteration # 50     ecut=    60.00 Ry     beta= 0.40
     Davidson diagonalization with overlap

---- Real-time Memory Report at c_bands before calling an iterative solver
          3648 MiB given to the printing process from OS
          -691 MiB allocation reported by mallinfo(arena+hblkhd)
         56228 MiB available memory on the node where the printing process lives
     GPU memory used/free/total (MiB): 3030 / 13250 / 16280
------------------
     ethr =  2.60E-07,  avg # of iterations =  2.0

     total cpu time spent up to now is      778.8 secs

     total energy              =    -648.36082293 Ry
     estimated scf accuracy    <       0.00055249 Ry

     total magnetization       =     5.51 Bohr mag/cell
     absolute magnetization    =     6.12 Bohr mag/cell
[tb_dev] Currently allocated     7.85E+00 Mbytes, locked:    0 /  10
[tb_pin] Currently allocated     0.00E+00 Mbytes, locked:    0 /   0

     iteration # 51     ecut=    60.00 Ry     beta= 0.40
     Davidson diagonalization with overlap

---- Real-time Memory Report at c_bands before calling an iterative solver
          3648 MiB given to the printing process from OS
          -691 MiB allocation reported by mallinfo(arena+hblkhd)
         56229 MiB available memory on the node where the printing process lives
     GPU memory used/free/total (MiB): 3030 / 13250 / 16280
------------------
     ethr =  2.60E-07,  avg # of iterations =  2.2

     total cpu time spent up to now is      795.3 secs

     total energy              =    -648.36118520 Ry
     estimated scf accuracy    <       0.00065037 Ry

     total magnetization       =     5.37 Bohr mag/cell
     absolute magnetization    =     6.02 Bohr mag/cell
[tb_dev] Currently allocated     7.85E+00 Mbytes, locked:    0 /  10
[tb_pin] Currently allocated     0.00E+00 Mbytes, locked:    0 /   0

     iteration # 52     ecut=    60.00 Ry     beta= 0.40
[...]

     total energy              =    -648.36767752 Ry
     estimated scf accuracy    <       0.03458905 Ry

     total magnetization       =     4.31 Bohr mag/cell
     absolute magnetization    =     6.79 Bohr mag/cell
[tb_dev] Currently allocated     7.85E+00 Mbytes, locked:    0 /  10
[tb_pin] Currently allocated     0.00E+00 Mbytes, locked:    0 /   0

     iteration # 65     ecut=    60.00 Ry     beta= 0.40
     Davidson diagonalization with overlap

---- Real-time Memory Report at c_bands before calling an iterative solver
          3648 MiB given to the printing process from OS
          -691 MiB allocation reported by mallinfo(arena+hblkhd)
         56233 MiB available memory on the node where the printing process lives
     GPU memory used/free/total (MiB): 3030 / 13250 / 16280
------------------
     ethr =  2.60E-07,  avg # of iterations =  1.0

     total cpu time spent up to now is     1030.4 secs

     total energy              =    -648.38029890 Ry
     estimated scf accuracy    <       0.03530048 Ry

     total magnetization       =     4.30 Bohr mag/cell
     absolute magnetization    =     6.80 Bohr mag/cell
[tb_dev] Currently allocated     7.85E+00 Mbytes, locked:    0 /  10
[tb_pin] Currently allocated     0.00E+00 Mbytes, locked:    0 /   0

     iteration # 66     ecut=    60.00 Ry     beta= 0.40
     Davidson diagonalization with overlap

---- Real-time Memory Report at c_bands before calling an iterative solver
          3648 MiB given to the printing process from OS
          -691 MiB allocation reported by mallinfo(arena+hblkhd)
         56233 MiB available memory on the node where the printing process lives
     GPU memory used/free/total (MiB): 3030 / 13250 / 16280
------------------
     ethr =  2.60E-07,  avg # of iterations =  4.0

     total cpu time spent up to now is     1053.4 secs

     total energy              =    -648.35317182 Ry
     estimated scf accuracy    <       0.23952164 Ry

     total magnetization       =     4.02 Bohr mag/cell
     absolute magnetization    =     7.37 Bohr mag/cell
[tb_dev] Currently allocated     7.85E+00 Mbytes, locked:    0 /  10
[tb_pin] Currently allocated     0.00E+00 Mbytes, locked:    0 /   0

     iteration # 67     ecut=    60.00 Ry     beta= 0.40
     Davidson diagonalization with overlap

---- Real-time Memory Report at c_bands before calling an iterative solver
          3648 MiB given to the printing process from OS
          -691 MiB allocation reported by mallinfo(arena+hblkhd)
         56233 MiB available memory on the node where the printing process lives
     GPU memory used/free/total (MiB): 3030 / 13250 / 16280
------------------
     ethr =  2.60E-07,  avg # of iterations =  4.7

     total cpu time spent up to now is     1077.4 secs

     total energy              =    -648.36277104 Ry
     estimated scf accuracy    <       0.02076684 Ry

     total magnetization       =     4.53 Bohr mag/cell
     absolute magnetization    =     6.54 Bohr mag/cell
[tb_dev] Currently allocated     7.85E+00 Mbytes, locked:    0 /  10
[tb_pin] Currently allocated     0.00E+00 Mbytes, locked:    0 /   0

     iteration # 68     ecut=    60.00 Ry     beta= 0.40
     Davidson diagonalization with overlap

---- Real-time Memory Report at c_bands before calling an iterative solver
          3648 MiB given to the printing process from OS
          -691 MiB allocation reported by mallinfo(arena+hblkhd)
         56234 MiB available memory on the node where the printing process lives
     GPU memory used/free/total (MiB): 3030 / 13250 / 16280
------------------
     ethr =  2.60E-07,  avg # of iterations =  2.0

     total cpu time spent up to now is     1093.2 secs

     total energy              =    -648.36700784 Ry
     estimated scf accuracy    <       0.00915192 Ry

     total magnetization       =     4.80 Bohr mag/cell
     absolute magnetization    =     6.25 Bohr mag/cell
[tb_dev] Currently allocated     7.85E+00 Mbytes, locked:    0 /  10
[tb_pin] Currently allocated     0.00E+00 Mbytes, locked:    0 /   0

     iteration # 69     ecut=    60.00 Ry     beta= 0.40
     Davidson diagonalization with overlap

---- Real-time Memory Report at c_bands before calling an iterative solver
          3648 MiB given to the printing process from OS
          -691 MiB allocation reported by mallinfo(arena+hblkhd)
         56234 MiB available memory on the node where the printing process lives
     GPU memory used/free/total (MiB): 3030 / 13250 / 16280
------------------
     ethr =  2.60E-07,  avg # of iterations =  2.6

     total cpu time spent up to now is     1111.7 secs

     total energy              =    -648.34562587 Ry
     estimated scf accuracy    <       0.05849160 Ry

     total magnetization       =     4.25 Bohr mag/cell
     absolute magnetization    =     6.90 Bohr mag/cell
[tb_dev] Currently allocated     7.85E+00 Mbytes, locked:    0 /  10
[tb_pin] Currently allocated     0.00E+00 Mbytes, locked:    0 /   0

     iteration # 70     ecut=    60.00 Ry     beta= 0.40
     Davidson diagonalization with overlap

---- Real-time Memory Report at c_bands before calling an iterative solver
          3648 MiB given to the printing process from OS
          -691 MiB allocation reported by mallinfo(arena+hblkhd)
         56234 MiB available memory on the node where the printing process lives
     GPU memory used/free/total (MiB): 3030 / 13250 / 16280
------------------
     ethr =  2.60E-07,  avg # of iterations =  4.1

     total cpu time spent up to now is     1134.9 secs

     total energy              =    -648.36095075 Ry
     estimated scf accuracy    <       0.00030835 Ry

     total magnetization       =     5.50 Bohr mag/cell
     absolute magnetization    =     6.11 Bohr mag/cell
[tb_dev] Currently allocated     7.85E+00 Mbytes, locked:    0 /  10
[tb_pin] Currently allocated     0.00E+00 Mbytes, locked:    0 /   0

     iteration # 71     ecut=    60.00 Ry     beta= 0.40
     Davidson diagonalization with overlap

---- Real-time Memory Report at c_bands before calling an iterative solver
          3648 MiB given to the printing process from OS
          -691 MiB allocation reported by mallinfo(arena+hblkhd)
         56235 MiB available memory on the node where the printing process lives
     GPU memory used/free/total (MiB): 3030 / 13250 / 16280
------------------
     ethr =  2.60E-07,  avg # of iterations =  1.8

     total cpu time spent up to now is     1149.3 secs

     total energy              =    -648.36109454 Ry
     estimated scf accuracy    <       0.00028084 Ry

     total magnetization       =     5.39 Bohr mag/cell
     absolute magnetization    =     6.07 Bohr mag/cell
[tb_dev] Currently allocated     7.85E+00 Mbytes, locked:    0 /  10
[tb_pin] Currently allocated     0.00E+00 Mbytes, locked:    0 /   0

     iteration # 72     ecut=    60.00 Ry     beta= 0.40
     Davidson diagonalization with overlap

---- Real-time Memory Report at c_bands before calling an iterative solver
          3648 MiB given to the printing process from OS
          -691 MiB allocation reported by mallinfo(arena+hblkhd)
         56235 MiB available memory on the node where the printing process lives
     GPU memory used/free/total (MiB): 3030 / 13250 / 16280
------------------
     ethr =  2.60E-07,  avg # of iterations =  2.0

     total cpu time spent up to now is     1164.4 secs

     total energy              =    -648.36109426 Ry
     estimated scf accuracy    <       0.00053863 Ry

     total magnetization       =     5.24 Bohr mag/cell
     absolute magnetization    =     6.06 Bohr mag/cell
[tb_dev] Currently allocated     7.85E+00 Mbytes, locked:    0 /  10
[tb_pin] Currently allocated     0.00E+00 Mbytes, locked:    0 /   0

     iteration # 73     ecut=    60.00 Ry     beta= 0.40
     Davidson diagonalization with overlap

---- Real-time Memory Report at c_bands before calling an iterative solver
          3648 MiB given to the printing process from OS
          -691 MiB allocation reported by mallinfo(arena+hblkhd)
         56235 MiB available memory on the node where the printing process lives
     GPU memory used/free/total (MiB): 3030 / 13250 / 16280
------------------
     ethr =  2.60E-07,  avg # of iterations =  1.0

     total cpu time spent up to now is     1177.3 secs

     total energy              =    -648.36109240 Ry
     estimated scf accuracy    <       0.00041063 Ry

     total magnetization       =     5.28 Bohr mag/cell
     absolute magnetization    =     6.08 Bohr mag/cell
[tb_dev] Currently allocated     7.85E+00 Mbytes, locked:    0 /  10
[tb_pin] Currently allocated     0.00E+00 Mbytes, locked:    0 /   0

     iteration # 74     ecut=    60.00 Ry     beta= 0.40
     Davidson diagonalization with overlap

---- Real-time Memory Report at c_bands before calling an iterative solver
          3648 MiB given to the printing process from OS
          -691 MiB allocation reported by mallinfo(arena+hblkhd)
         56235 MiB available memory on the node where the printing process lives
     GPU memory used/free/total (MiB): 3030 / 13250 / 16280
------------------
     ethr =  2.60E-07,  avg # of iterations =  1.0

     total cpu time spent up to now is     1190.4 secs

     total energy              =    -648.36102624 Ry
     estimated scf accuracy    <       0.00041737 Ry

     total magnetization       =     5.25 Bohr mag/cell
     absolute magnetization    =     6.10 Bohr mag/cell
[tb_dev] Currently allocated     7.85E+00 Mbytes, locked:    0 /  10
[tb_pin] Currently allocated     0.00E+00 Mbytes, locked:    0 /   0

     iteration # 75     ecut=    60.00 Ry     beta= 0.40
     Davidson diagonalization with overlap

---- Real-time Memory Report at c_bands before calling an iterative solver
          3648 MiB given to the printing process from OS
          -691 MiB allocation reported by mallinfo(arena+hblkhd)
         56236 MiB available memory on the node where the printing process lives
     GPU memory used/free/total (MiB): 3030 / 13250 / 16280
------------------
     ethr =  2.60E-07,  avg # of iterations =  1.0

     total cpu time spent up to now is     1203.4 secs

     total energy              =    -648.36109000 Ry
     estimated scf accuracy    <       0.00033406 Ry

     total magnetization       =     5.27 Bohr mag/cell
     absolute magnetization    =     6.12 Bohr mag/cell
[tb_dev] Currently allocated     7.85E+00 Mbytes, locked:    0 /  10
[tb_pin] Currently allocated     0.00E+00 Mbytes, locked:    0 /   0

     iteration # 76     ecut=    60.00 Ry     beta= 0.40
     Davidson diagonalization with overlap

---- Real-time Memory Report at c_bands before calling an iterative solver
          3648 MiB given to the printing process from OS
          -691 MiB allocation reported by mallinfo(arena+hblkhd)
         56236 MiB available memory on the node where the printing process lives
     GPU memory used/free/total (MiB): 3030 / 13250 / 16280
------------------
     ethr =  2.60E-07,  avg # of iterations =  1.1

     total cpu time spent up to now is     1216.6 secs

     total energy              =    -648.36050977 Ry
     estimated scf accuracy    <       0.00033346 Ry

     total magnetization       =     5.29 Bohr mag/cell
     absolute magnetization    =     6.06 Bohr mag/cell
[tb_dev] Currently allocated     7.85E+00 Mbytes, locked:    0 /  10
[tb_pin] Currently allocated     0.00E+00 Mbytes, locked:    0 /   0

     iteration # 77     ecut=    60.00 Ry     beta= 0.40
     Davidson diagonalization with overlap

---- Real-time Memory Report at c_bands before calling an iterative solver
          3648 MiB given to the printing process from OS
          -691 MiB allocation reported by mallinfo(arena+hblkhd)
         56235 MiB available memory on the node where the printing process lives
     GPU memory used/free/total (MiB): 3030 / 13250 / 16280
------------------
     ethr =  2.60E-07,  avg # of iterations =  2.0

     total cpu time spent up to now is     1233.0 secs

     total energy              =    -648.36063779 Ry
     estimated scf accuracy    <       0.00016537 Ry

     total magnetization       =     5.49 Bohr mag/cell
     absolute magnetization    =     6.10 Bohr mag/cell
[tb_dev] Currently allocated     7.85E+00 Mbytes, locked:    0 /  10
[tb_pin] Currently allocated     0.00E+00 Mbytes, locked:    0 /   0

     iteration # 78     ecut=    60.00 Ry     beta= 0.40
     Davidson diagonalization with overlap

---- Real-time Memory Report at c_bands before calling an iterative solver
          3648 MiB given to the printing process from OS
          -691 MiB allocation reported by mallinfo(arena+hblkhd)
         56234 MiB available memory on the node where the printing process lives
     GPU memory used/free/total (MiB): 3030 / 13250 / 16280
------------------
     ethr =  2.07E-07,  avg # of iterations =  2.0

     total cpu time spent up to now is     1248.3 secs

     total energy              =    -648.36054680 Ry
     estimated scf accuracy    <       0.00019849 Ry

     total magnetization       =     5.54 Bohr mag/cell
     absolute magnetization    =     6.15 Bohr mag/cell
[tb_dev] Currently allocated     7.85E+00 Mbytes, locked:    0 /  10
[tb_pin] Currently allocated     0.00E+00 Mbytes, locked:    0 /   0

     iteration # 79     ecut=    60.00 Ry     beta= 0.40
     Davidson diagonalization with overlap

---- Real-time Memory Report at c_bands before calling an iterative solver
          3648 MiB given to the printing process from OS
          -691 MiB allocation reported by mallinfo(arena+hblkhd)
         56236 MiB available memory on the node where the printing process lives
     GPU memory used/free/total (MiB): 3030 / 13250 / 16280
------------------
     ethr =  2.07E-07,  avg # of iterations =  1.5

     total cpu time spent up to now is     1262.3 secs

     total energy              =    -648.36065041 Ry
     estimated scf accuracy    <       0.00025741 Ry

     total magnetization       =     5.58 Bohr mag/cell
     absolute magnetization    =     6.18 Bohr mag/cell
[tb_dev] Currently allocated     7.85E+00 Mbytes, locked:    0 /  10
[tb_pin] Currently allocated     0.00E+00 Mbytes, locked:    0 /   0

     iteration # 80     ecut=    60.00 Ry     beta= 0.40
     Davidson diagonalization with overlap

---- Real-time Memory Report at c_bands before calling an iterative solver
          3648 MiB given to the printing process from OS
          -691 MiB allocation reported by mallinfo(arena+hblkhd)
         56236 MiB available memory on the node where the printing process lives
     GPU memory used/free/total (MiB): 3030 / 13250 / 16280
------------------
     ethr =  2.07E-07,  avg # of iterations =  1.0

     total cpu time spent up to now is     1275.2 secs

     total energy              =    -648.36051974 Ry
     estimated scf accuracy    <       0.00020255 Ry

     total magnetization       =     5.56 Bohr mag/cell
     absolute magnetization    =     6.14 Bohr mag/cell

     End of self-consistent calculation

     convergence NOT achieved after  80 iterations: stopping

     Writing config to output data dir ./out/aiida.save/
 
     init_run     :     21.44s CPU     12.78s WALL (       1 calls)
     electrons    :   1435.16s CPU   1262.12s WALL (       1 calls)

     Called by init_run:
     wfcinit      :      7.96s CPU      9.78s WALL (       1 calls)
                                        9.78s GPU  (       1 calls)
     wfcinit:atom :      0.11s CPU      0.22s WALL (     300 calls)
                                        0.22s GPU  (     300 calls)
     wfcinit:wfcr :      4.41s CPU      5.12s WALL (     300 calls)
                                        5.12s GPU  (     300 calls)
     potinit      :      3.11s CPU      0.27s WALL (       1 calls)
     hinit0       :      7.78s CPU      1.82s WALL (       1 calls)

     Called by electrons:
     c_bands      :   1067.50s CPU   1037.05s WALL (      80 calls)
     sum_band     :    194.16s CPU    208.69s WALL (      80 calls)
     v_of_rho     :     46.52s CPU      4.17s WALL (      81 calls)
     v_h          :      6.58s CPU      0.58s WALL (      81 calls)
     v_xc         :     39.92s CPU      3.59s WALL (      81 calls)
     newd         :     60.66s CPU      5.79s WALL (      81 calls)
                                        5.79s GPU  (      81 calls)
     mix_rho      :     48.53s CPU      4.78s WALL (      80 calls)

     Called by c_bands:
     init_us_2    :     56.02s CPU     58.91s WALL (   48300 calls)
     init_us_2:gp :     55.16s CPU     58.10s WALL (   48300 calls)
     cegterg      :    899.40s CPU    880.09s WALL (   24000 calls)

     Called by sum_band:
     sum_band:wei :      1.15s CPU      1.15s WALL (      80 calls)
                                        1.15s GPU  (      80 calls)
     sum_band:loo :    185.26s CPU    199.66s WALL (      80 calls)
                                      199.66s GPU  (      80 calls)
     sum_band:buf :     57.17s CPU     59.42s WALL (   24000 calls)
                                       59.28s GPU  (   24000 calls)
     sum_band:ini :     24.98s CPU     28.55s WALL (   24000 calls)
                                       28.41s GPU  (   24000 calls)
     sum_band:cal :      0.72s CPU     11.00s WALL (   24000 calls)
                                        6.21s GPU  (   24000 calls)
     sum_band:bec :      6.52s CPU      7.05s WALL (   24000 calls)
                                        6.89s GPU  (   24000 calls)
     addusdens    :      4.26s CPU      4.37s WALL (      80 calls)
                                        4.37s GPU  (      80 calls)
     addusd:skk   :      0.04s CPU      0.04s WALL (     240 calls)
                                        0.04s GPU  (     240 calls)

     Called by *egterg:
     cdiaghg      :    248.32s CPU    263.03s WALL (   72002 calls)
                                      262.54s GPU  (   72002 calls)
     cegterg:over :     19.66s CPU     18.96s WALL (   48002 calls)
     cegterg:upda :     29.48s CPU     29.58s WALL (   48002 calls)
     cegterg:last :     15.08s CPU     14.54s WALL (   41529 calls)
     h_psi        :    530.79s CPU    502.37s WALL (   72302 calls)
                                      501.25s GPU  (   72302 calls)
     s_psi        :     11.48s CPU     24.01s WALL (   72302 calls)
                                       21.74s GPU  (   72302 calls)
     g_psi        :      0.36s CPU      2.73s WALL (   48002 calls)
                                        2.42s GPU  (   48002 calls)

     Called by h_psi:
     h_psi:calbec :      2.48s CPU     17.99s WALL (   72302 calls)
                                       17.52s GPU  (   72302 calls)
     vloc_psi     :    473.57s CPU    449.20s WALL (   72302 calls)
                                      448.74s GPU  (   72302 calls)
     add_vuspsi   :     18.02s CPU     28.17s WALL (   72302 calls)
                                       27.70s GPU  (   72302 calls)

     General routines
     calbec       :      2.24s CPU      2.16s WALL (   96302 calls)
     fft          :      2.70s CPU      0.64s WALL (    2023 calls)
                                        0.50s GPU  (    1861 calls)
     ffts         :      0.15s CPU      0.05s WALL (     322 calls)
                                        0.01s GPU  (     160 calls)
     fftw         :      9.08s CPU    368.41s WALL (  440214 calls)
                                      365.54s GPU  (  440214 calls)
     interpolate  :      6.53s CPU      0.57s WALL (     162 calls)
     davcio       :      0.67s CPU      1.75s WALL (     318 calls)
 
     Parallel routines
 
     PWSCF        :  24m19.42s CPU  21m17.55s WALL

 
   This run was terminated on:  18:11:36  22Oct2023            

=------------------------------------------------------------------------------=
   JOB DONE.
=------------------------------------------------------------------------------=
