
     Program PWSCF v.7.2 starts on 23Oct2023 at 18:18:33 

     This program is part of the open-source Quantum ESPRESSO suite
     for quantum simulation of materials; please cite
         "P. Giannozzi et al., J. Phys.:Condens. Matter 21 395502 (2009);
         "P. Giannozzi et al., J. Phys.:Condens. Matter 29 465901 (2017);
         "P. Giannozzi et al., J. Chem. Phys. 152 154105 (2020);
          URL http://www.quantum-espresso.org", 
     in publications or presentations arising from this work. More details at
     http://www.quantum-espresso.org/quote

     Parallel version (MPI & OpenMP), running on      12 processor cores
     Number of MPI processes:                 1
     Threads/MPI process:                    12

     MPI processes distributed on     1 nodes
     60497 MiB available memory on the printing compute node when the environment starts
 
     Reading input from aiida.in

     Current dimensions of program PWSCF are:
     Max number of different atomic species (ntypx) = 10
     Max number of k-points (npk) =  40000
     Max angular momentum in pseudopotentials (lmaxx) =  4
     file Nb.pbesol-spn-kjpaw_psl.0.3.0.UPF: wavefunction(s)  4S 4P renormalized
     Message from routine setup:
     using ibrav=0 with symmetry is DISCOURAGED, use correct ibrav instead
 
     Subspace diagonalization in iterative solution of the eigenvalue problem:
     a serial algorithm will be used

 
     G-vector sticks info
     --------------------
     sticks:   dense  smooth     PW     G-vecs:    dense   smooth      PW
     Sum        1353     673    213                37385    13205    2325
 
     Using Slab Decomposition
 


     bravais-lattice index     =            0
     lattice parameter (alat)  =       6.8616  a.u.
     unit-cell volume          =     323.0542 (a.u.)^3
     number of atoms/cell      =            4
     number of atomic types    =            2
     number of electrons       =        64.00
     number of Kohn-Sham states=           38
     kinetic-energy cutoff     =      45.0000  Ry
     charge density cutoff     =     360.0000  Ry
     scf convergence threshold =      8.0E-10
     mixing beta               =       0.1000
     number of iterations used =            8  plain     mixing
     Exchange-correlation= SLA  PW   PSX  PSC
                           (   1   4  10   8   0   0   0)

     GPU acceleration is ACTIVE.


     GPU used by master process:

        Device Number: 0
        Device name: Tesla P100-PCIE-16GB
        Compute capability : 60
        Ratio of single to double precision performance  : 2
        Memory Clock Rate (KHz): 715000
        Memory Bus Width (bits): 4096
        Peak Memory Bandwidth (GB/s): 732.16

     celldm(1)=   6.861596  celldm(2)=   0.000000  celldm(3)=   0.000000
     celldm(4)=   0.000000  celldm(5)=   0.000000  celldm(6)=   0.000000

     crystal axes: (cart. coord. in units of alat)
               a(1) = (   1.000000   0.000000   0.000000 )  
               a(2) = (   0.000000   1.000000   0.000000 )  
               a(3) = (   0.000000   0.000000   1.000000 )  

     reciprocal axes: (cart. coord. in units 2 pi/alat)
               b(1) = (  1.000000  0.000000  0.000000 )  
               b(2) = (  0.000000  1.000000  0.000000 )  
               b(3) = (  0.000000  0.000000  1.000000 )  


     PseudoPot. # 1 for Co read from file:
     ./pseudo/co_pbesol_v1.2.uspp.F.UPF
     MD5 check sum: 3b4cd4e7cc7df4da9fdede0fd33e2193
     Pseudo is Ultrasoft + core correction, Zval = 17.0
     Generated by new atomic code, or converted to UPF format
     Using radial grid of  863 points,  6 beta functions with: 
                l(1) =   0
                l(2) =   0
                l(3) =   1
                l(4) =   1
                l(5) =   2
                l(6) =   2
     Q(r) pseudized with  8 coefficients,  rinner =    1.200   1.200   1.200
                                                       1.200   1.200

     PseudoPot. # 2 for Nb read from file:
     ./pseudo/Nb.pbesol-spn-kjpaw_psl.0.3.0.UPF
     MD5 check sum: 3501bca1474143575298708b2d32ca28
     Pseudo is Projector augmented-wave + core cor, Zval = 13.0
     Generated using "atomic" code by A. Dal Corso  v.6.0 svn rev. 13079
     Shape of augmentation charge: PSQ
     Using radial grid of 1227 points,  6 beta functions with: 
                l(1) =   0
                l(2) =   0
                l(3) =   1
                l(4) =   1
                l(5) =   2
                l(6) =   2
     Q(r) pseudized with 0 coefficients 


     atomic species   valence    mass     pseudopotential
        Co            17.00    58.93319     Co( 1.00)
        Nb            13.00    92.90638     Nb( 1.00)

     Starting magnetic structure 
     atomic species   magnetization
        Co           0.294
        Nb           0.385

     48 Sym. Ops., with inversion, found


                                    s                        frac. trans.

      isym =  1     identity                                     

 cryst.   s( 1) = (     1          0          0      )
                  (     0          1          0      )
                  (     0          0          1      )

 cart.    s( 1) = (  1.0000000  0.0000000  0.0000000 )
                  (  0.0000000  1.0000000  0.0000000 )
                  (  0.0000000  0.0000000  1.0000000 )


      isym =  2     180 deg rotation - cart. axis [0,0,1]        

 cryst.   s( 2) = (    -1          0          0      )
                  (     0         -1          0      )
                  (     0          0          1      )

 cart.    s( 2) = ( -1.0000000  0.0000000  0.0000000 )
                  (  0.0000000 -1.0000000  0.0000000 )
                  (  0.0000000  0.0000000  1.0000000 )


      isym =  3     180 deg rotation - cart. axis [0,1,0]        

 cryst.   s( 3) = (    -1          0          0      )
                  (     0          1          0      )
                  (     0          0         -1      )

 cart.    s( 3) = ( -1.0000000  0.0000000  0.0000000 )
                  (  0.0000000  1.0000000  0.0000000 )
                  (  0.0000000  0.0000000 -1.0000000 )


      isym =  4     180 deg rotation - cart. axis [1,0,0]        

 cryst.   s( 4) = (     1          0          0      )
                  (     0         -1          0      )
                  (     0          0         -1      )

 cart.    s( 4) = (  1.0000000  0.0000000  0.0000000 )
                  (  0.0000000 -1.0000000  0.0000000 )
                  (  0.0000000  0.0000000 -1.0000000 )


      isym =  5     180 deg rotation - cart. axis [1,1,0]        

 cryst.   s( 5) = (     0          1          0      )
                  (     1          0          0      )
                  (     0          0         -1      )

 cart.    s( 5) = (  0.0000000  1.0000000  0.0000000 )
                  (  1.0000000  0.0000000  0.0000000 )
                  (  0.0000000  0.0000000 -1.0000000 )


      isym =  6     180 deg rotation - cart. axis [1,-1,0]       

 cryst.   s( 6) = (     0         -1          0      )
                  (    -1          0          0      )
                  (     0          0         -1      )

 cart.    s( 6) = (  0.0000000 -1.0000000  0.0000000 )
                  ( -1.0000000  0.0000000  0.0000000 )
                  (  0.0000000  0.0000000 -1.0000000 )


      isym =  7      90 deg rotation - cart. axis [0,0,-1]       

 cryst.   s( 7) = (     0         -1          0      )
                  (     1          0          0      )
                  (     0          0          1      )

 cart.    s( 7) = (  0.0000000  1.0000000  0.0000000 )
                  ( -1.0000000  0.0000000  0.0000000 )
                  (  0.0000000  0.0000000  1.0000000 )


      isym =  8      90 deg rotation - cart. axis [0,0,1]        

 cryst.   s( 8) = (     0          1          0      )
                  (    -1          0          0      )
                  (     0          0          1      )

 cart.    s( 8) = (  0.0000000 -1.0000000  0.0000000 )
                  (  1.0000000  0.0000000  0.0000000 )
                  (  0.0000000  0.0000000  1.0000000 )


      isym =  9     180 deg rotation - cart. axis [1,0,1]        

 cryst.   s( 9) = (     0          0          1      )
                  (     0         -1          0      )
                  (     1          0          0      )

 cart.    s( 9) = (  0.0000000  0.0000000  1.0000000 )
                  (  0.0000000 -1.0000000  0.0000000 )
                  (  1.0000000  0.0000000  0.0000000 )


      isym = 10     180 deg rotation - cart. axis [-1,0,1]       

 cryst.   s(10) = (     0          0         -1      )
                  (     0         -1          0      )
                  (    -1          0          0      )

 cart.    s(10) = (  0.0000000  0.0000000 -1.0000000 )
                  (  0.0000000 -1.0000000  0.0000000 )
                  ( -1.0000000  0.0000000  0.0000000 )


      isym = 11      90 deg rotation - cart. axis [0,1,0]        

 cryst.   s(11) = (     0          0         -1      )
                  (     0          1          0      )
                  (     1          0          0      )

 cart.    s(11) = (  0.0000000  0.0000000  1.0000000 )
                  (  0.0000000  1.0000000  0.0000000 )
                  ( -1.0000000  0.0000000  0.0000000 )


      isym = 12      90 deg rotation - cart. axis [0,-1,0]       

 cryst.   s(12) = (     0          0          1      )
                  (     0          1          0      )
                  (    -1          0          0      )

 cart.    s(12) = (  0.0000000  0.0000000 -1.0000000 )
                  (  0.0000000  1.0000000  0.0000000 )
                  (  1.0000000  0.0000000  0.0000000 )


      isym = 13     180 deg rotation - cart. axis [0,1,1]        

 cryst.   s(13) = (    -1          0          0      )
                  (     0          0          1      )
                  (     0          1          0      )

 cart.    s(13) = ( -1.0000000  0.0000000  0.0000000 )
                  (  0.0000000  0.0000000  1.0000000 )
                  (  0.0000000  1.0000000  0.0000000 )


      isym = 14     180 deg rotation - cart. axis [0,1,-1]       

 cryst.   s(14) = (    -1          0          0      )
                  (     0          0         -1      )
                  (     0         -1          0      )

 cart.    s(14) = ( -1.0000000  0.0000000  0.0000000 )
                  (  0.0000000  0.0000000 -1.0000000 )
                  (  0.0000000 -1.0000000  0.0000000 )


      isym = 15      90 deg rotation - cart. axis [-1,0,0]       

 cryst.   s(15) = (     1          0          0      )
                  (     0          0         -1      )
                  (     0          1          0      )

 cart.    s(15) = (  1.0000000  0.0000000  0.0000000 )
                  (  0.0000000  0.0000000  1.0000000 )
                  (  0.0000000 -1.0000000  0.0000000 )


      isym = 16      90 deg rotation - cart. axis [1,0,0]        

 cryst.   s(16) = (     1          0          0      )
                  (     0          0          1      )
                  (     0         -1          0      )

 cart.    s(16) = (  1.0000000  0.0000000  0.0000000 )
                  (  0.0000000  0.0000000 -1.0000000 )
                  (  0.0000000  1.0000000  0.0000000 )


      isym = 17     120 deg rotation - cart. axis [-1,-1,-1]     

 cryst.   s(17) = (     0          0          1      )
                  (     1          0          0      )
                  (     0          1          0      )

 cart.    s(17) = (  0.0000000  1.0000000  0.0000000 )
                  (  0.0000000  0.0000000  1.0000000 )
                  (  1.0000000  0.0000000  0.0000000 )


      isym = 18     120 deg rotation - cart. axis [-1,1,1]       

 cryst.   s(18) = (     0          0         -1      )
                  (    -1          0          0      )
                  (     0          1          0      )

 cart.    s(18) = (  0.0000000 -1.0000000  0.0000000 )
                  (  0.0000000  0.0000000  1.0000000 )
                  ( -1.0000000  0.0000000  0.0000000 )


      isym = 19     120 deg rotation - cart. axis [1,1,-1]       

 cryst.   s(19) = (     0          0         -1      )
                  (     1          0          0      )
                  (     0         -1          0      )

 cart.    s(19) = (  0.0000000  1.0000000  0.0000000 )
                  (  0.0000000  0.0000000 -1.0000000 )
                  ( -1.0000000  0.0000000  0.0000000 )


      isym = 20     120 deg rotation - cart. axis [1,-1,1]       

 cryst.   s(20) = (     0          0          1      )
                  (    -1          0          0      )
                  (     0         -1          0      )

 cart.    s(20) = (  0.0000000 -1.0000000  0.0000000 )
                  (  0.0000000  0.0000000 -1.0000000 )
                  (  1.0000000  0.0000000  0.0000000 )


      isym = 21     120 deg rotation - cart. axis [1,1,1]        

 cryst.   s(21) = (     0          1          0      )
                  (     0          0          1      )
                  (     1          0          0      )

 cart.    s(21) = (  0.0000000  0.0000000  1.0000000 )
                  (  1.0000000  0.0000000  0.0000000 )
                  (  0.0000000  1.0000000  0.0000000 )


      isym = 22     120 deg rotation - cart. axis [-1,1,-1]      

 cryst.   s(22) = (     0         -1          0      )
                  (     0          0         -1      )
                  (     1          0          0      )

 cart.    s(22) = (  0.0000000  0.0000000  1.0000000 )
                  ( -1.0000000  0.0000000  0.0000000 )
                  (  0.0000000 -1.0000000  0.0000000 )


      isym = 23     120 deg rotation - cart. axis [1,-1,-1]      

 cryst.   s(23) = (     0         -1          0      )
                  (     0          0          1      )
                  (    -1          0          0      )

 cart.    s(23) = (  0.0000000  0.0000000 -1.0000000 )
                  ( -1.0000000  0.0000000  0.0000000 )
                  (  0.0000000  1.0000000  0.0000000 )


      isym = 24     120 deg rotation - cart. axis [-1,-1,1]      

 cryst.   s(24) = (     0          1          0      )
                  (     0          0         -1      )
                  (    -1          0          0      )

 cart.    s(24) = (  0.0000000  0.0000000 -1.0000000 )
                  (  1.0000000  0.0000000  0.0000000 )
                  (  0.0000000 -1.0000000  0.0000000 )


      isym = 25     inversion                                    

 cryst.   s(25) = (    -1          0          0      )
                  (     0         -1          0      )
                  (     0          0         -1      )

 cart.    s(25) = ( -1.0000000  0.0000000  0.0000000 )
                  (  0.0000000 -1.0000000  0.0000000 )
                  (  0.0000000  0.0000000 -1.0000000 )


      isym = 26     inv. 180 deg rotation - cart. axis [0,0,1]   

 cryst.   s(26) = (     1          0          0      )
                  (     0          1          0      )
                  (     0          0         -1      )

 cart.    s(26) = (  1.0000000  0.0000000  0.0000000 )
                  (  0.0000000  1.0000000  0.0000000 )
                  (  0.0000000  0.0000000 -1.0000000 )


      isym = 27     inv. 180 deg rotation - cart. axis [0,1,0]   

 cryst.   s(27) = (     1          0          0      )
                  (     0         -1          0      )
                  (     0          0          1      )

 cart.    s(27) = (  1.0000000  0.0000000  0.0000000 )
                  (  0.0000000 -1.0000000  0.0000000 )
                  (  0.0000000  0.0000000  1.0000000 )


      isym = 28     inv. 180 deg rotation - cart. axis [1,0,0]   

 cryst.   s(28) = (    -1          0          0      )
                  (     0          1          0      )
                  (     0          0          1      )

 cart.    s(28) = ( -1.0000000  0.0000000  0.0000000 )
                  (  0.0000000  1.0000000  0.0000000 )
                  (  0.0000000  0.0000000  1.0000000 )


      isym = 29     inv. 180 deg rotation - cart. axis [1,1,0]   

 cryst.   s(29) = (     0         -1          0      )
                  (    -1          0          0      )
                  (     0          0          1      )

 cart.    s(29) = (  0.0000000 -1.0000000  0.0000000 )
                  ( -1.0000000  0.0000000  0.0000000 )
                  (  0.0000000  0.0000000  1.0000000 )


      isym = 30     inv. 180 deg rotation - cart. axis [1,-1,0]  

 cryst.   s(30) = (     0          1          0      )
                  (     1          0          0      )
                  (     0          0          1      )

 cart.    s(30) = (  0.0000000  1.0000000  0.0000000 )
                  (  1.0000000  0.0000000  0.0000000 )
                  (  0.0000000  0.0000000  1.0000000 )


      isym = 31     inv.  90 deg rotation - cart. axis [0,0,-1]  

 cryst.   s(31) = (     0          1          0      )
                  (    -1          0          0      )
                  (     0          0         -1      )

 cart.    s(31) = (  0.0000000 -1.0000000  0.0000000 )
                  (  1.0000000  0.0000000  0.0000000 )
                  (  0.0000000  0.0000000 -1.0000000 )


      isym = 32     inv.  90 deg rotation - cart. axis [0,0,1]   

 cryst.   s(32) = (     0         -1          0      )
                  (     1          0          0      )
                  (     0          0         -1      )

 cart.    s(32) = (  0.0000000  1.0000000  0.0000000 )
                  ( -1.0000000  0.0000000  0.0000000 )
                  (  0.0000000  0.0000000 -1.0000000 )


      isym = 33     inv. 180 deg rotation - cart. axis [1,0,1]   

 cryst.   s(33) = (     0          0         -1      )
                  (     0          1          0      )
                  (    -1          0          0      )

 cart.    s(33) = (  0.0000000  0.0000000 -1.0000000 )
                  (  0.0000000  1.0000000  0.0000000 )
                  ( -1.0000000  0.0000000  0.0000000 )


      isym = 34     inv. 180 deg rotation - cart. axis [-1,0,1]  

 cryst.   s(34) = (     0          0          1      )
                  (     0          1          0      )
                  (     1          0          0      )

 cart.    s(34) = (  0.0000000  0.0000000  1.0000000 )
                  (  0.0000000  1.0000000  0.0000000 )
                  (  1.0000000  0.0000000  0.0000000 )


      isym = 35     inv.  90 deg rotation - cart. axis [0,1,0]   

 cryst.   s(35) = (     0          0          1      )
                  (     0         -1          0      )
                  (    -1          0          0      )

 cart.    s(35) = (  0.0000000  0.0000000 -1.0000000 )
                  (  0.0000000 -1.0000000  0.0000000 )
                  (  1.0000000  0.0000000  0.0000000 )


      isym = 36     inv.  90 deg rotation - cart. axis [0,-1,0]  

 cryst.   s(36) = (     0          0         -1      )
                  (     0         -1          0      )
                  (     1          0          0      )

 cart.    s(36) = (  0.0000000  0.0000000  1.0000000 )
                  (  0.0000000 -1.0000000  0.0000000 )
                  ( -1.0000000  0.0000000  0.0000000 )


      isym = 37     inv. 180 deg rotation - cart. axis [0,1,1]   

 cryst.   s(37) = (     1          0          0      )
                  (     0          0         -1      )
                  (     0         -1          0      )

 cart.    s(37) = (  1.0000000  0.0000000  0.0000000 )
                  (  0.0000000  0.0000000 -1.0000000 )
                  (  0.0000000 -1.0000000  0.0000000 )


      isym = 38     inv. 180 deg rotation - cart. axis [0,1,-1]  

 cryst.   s(38) = (     1          0          0      )
                  (     0          0          1      )
                  (     0          1          0      )

 cart.    s(38) = (  1.0000000  0.0000000  0.0000000 )
                  (  0.0000000  0.0000000  1.0000000 )
                  (  0.0000000  1.0000000  0.0000000 )


      isym = 39     inv.  90 deg rotation - cart. axis [-1,0,0]  

 cryst.   s(39) = (    -1          0          0      )
                  (     0          0          1      )
                  (     0         -1          0      )

 cart.    s(39) = ( -1.0000000  0.0000000  0.0000000 )
                  (  0.0000000  0.0000000 -1.0000000 )
                  (  0.0000000  1.0000000  0.0000000 )


      isym = 40     inv.  90 deg rotation - cart. axis [1,0,0]   

 cryst.   s(40) = (    -1          0          0      )
                  (     0          0         -1      )
                  (     0          1          0      )

 cart.    s(40) = ( -1.0000000  0.0000000  0.0000000 )
                  (  0.0000000  0.0000000  1.0000000 )
                  (  0.0000000 -1.0000000  0.0000000 )


      isym = 41     inv. 120 deg rotation - cart. axis [-1,-1,-1]

 cryst.   s(41) = (     0          0         -1      )
                  (    -1          0          0      )
                  (     0         -1          0      )

 cart.    s(41) = (  0.0000000 -1.0000000  0.0000000 )
                  (  0.0000000  0.0000000 -1.0000000 )
                  ( -1.0000000  0.0000000  0.0000000 )


      isym = 42     inv. 120 deg rotation - cart. axis [-1,1,1]  

 cryst.   s(42) = (     0          0          1      )
                  (     1          0          0      )
                  (     0         -1          0      )

 cart.    s(42) = (  0.0000000  1.0000000  0.0000000 )
                  (  0.0000000  0.0000000 -1.0000000 )
                  (  1.0000000  0.0000000  0.0000000 )


      isym = 43     inv. 120 deg rotation - cart. axis [1,1,-1]  

 cryst.   s(43) = (     0          0          1      )
                  (    -1          0          0      )
                  (     0          1          0      )

 cart.    s(43) = (  0.0000000 -1.0000000  0.0000000 )
                  (  0.0000000  0.0000000  1.0000000 )
                  (  1.0000000  0.0000000  0.0000000 )


      isym = 44     inv. 120 deg rotation - cart. axis [1,-1,1]  

 cryst.   s(44) = (     0          0         -1      )
                  (     1          0          0      )
                  (     0          1          0      )

 cart.    s(44) = (  0.0000000  1.0000000  0.0000000 )
                  (  0.0000000  0.0000000  1.0000000 )
                  ( -1.0000000  0.0000000  0.0000000 )


      isym = 45     inv. 120 deg rotation - cart. axis [1,1,1]   

 cryst.   s(45) = (     0         -1          0      )
                  (     0          0         -1      )
                  (    -1          0          0      )

 cart.    s(45) = (  0.0000000  0.0000000 -1.0000000 )
                  ( -1.0000000  0.0000000  0.0000000 )
                  (  0.0000000 -1.0000000  0.0000000 )


      isym = 46     inv. 120 deg rotation - cart. axis [-1,1,-1] 

 cryst.   s(46) = (     0          1          0      )
                  (     0          0          1      )
                  (    -1          0          0      )

 cart.    s(46) = (  0.0000000  0.0000000 -1.0000000 )
                  (  1.0000000  0.0000000  0.0000000 )
                  (  0.0000000  1.0000000  0.0000000 )


      isym = 47     inv. 120 deg rotation - cart. axis [1,-1,-1] 

 cryst.   s(47) = (     0          1          0      )
                  (     0          0         -1      )
                  (     1          0          0      )

 cart.    s(47) = (  0.0000000  0.0000000  1.0000000 )
                  (  1.0000000  0.0000000  0.0000000 )
                  (  0.0000000 -1.0000000  0.0000000 )


      isym = 48     inv. 120 deg rotation - cart. axis [-1,-1,1] 

 cryst.   s(48) = (     0         -1          0      )
                  (     0          0          1      )
                  (     1          0          0      )

 cart.    s(48) = (  0.0000000  0.0000000  1.0000000 )
                  ( -1.0000000  0.0000000  0.0000000 )
                  (  0.0000000  1.0000000  0.0000000 )


   Cartesian axes

     site n.     atom                  positions (alat units)
         1           Nb  tau(   1) = (   0.0000000   0.0000000   0.0000000  )
         2           Co  tau(   2) = (   0.5000000   0.5000000   0.0000000  )
         3           Co  tau(   3) = (   0.5000000   0.0000000   0.5000000  )
         4           Co  tau(   4) = (   0.0000000   0.5000000   0.5000000  )

   Crystallographic axes

     site n.     atom                  positions (cryst. coord.)
         1           Nb  tau(   1) = (  0.0000000  0.0000000  0.0000000  )
         2           Co  tau(   2) = (  0.5000000  0.5000000  0.0000000  )
         3           Co  tau(   3) = (  0.5000000  0.0000000  0.5000000  )
         4           Co  tau(   4) = (  0.0000000  0.5000000  0.5000000  )

     number of k points=    84  Marzari-Vanderbilt smearing, width (Ry)=  0.0100
                       cart. coord. in units 2pi/alat
        k(    1) = (   0.0000000   0.0000000   0.0000000), wk =   0.0005787
        k(    2) = (   0.0000000   0.0000000   0.0833333), wk =   0.0034722
        k(    3) = (   0.0000000   0.0000000   0.1666667), wk =   0.0034722
        k(    4) = (   0.0000000   0.0000000   0.2500000), wk =   0.0034722
        k(    5) = (   0.0000000   0.0000000   0.3333333), wk =   0.0034722
        k(    6) = (   0.0000000   0.0000000   0.4166667), wk =   0.0034722
        k(    7) = (   0.0000000   0.0000000  -0.5000000), wk =   0.0017361
        k(    8) = (   0.0000000   0.0833333   0.0833333), wk =   0.0069444
        k(    9) = (   0.0000000   0.0833333   0.1666667), wk =   0.0138889
        k(   10) = (   0.0000000   0.0833333   0.2500000), wk =   0.0138889
        k(   11) = (   0.0000000   0.0833333   0.3333333), wk =   0.0138889
        k(   12) = (   0.0000000   0.0833333   0.4166667), wk =   0.0138889
        k(   13) = (   0.0000000   0.0833333  -0.5000000), wk =   0.0069444
        k(   14) = (   0.0000000   0.1666667   0.1666667), wk =   0.0069444
        k(   15) = (   0.0000000   0.1666667   0.2500000), wk =   0.0138889
        k(   16) = (   0.0000000   0.1666667   0.3333333), wk =   0.0138889
        k(   17) = (   0.0000000   0.1666667   0.4166667), wk =   0.0138889
        k(   18) = (   0.0000000   0.1666667  -0.5000000), wk =   0.0069444
        k(   19) = (   0.0000000   0.2500000   0.2500000), wk =   0.0069444
        k(   20) = (   0.0000000   0.2500000   0.3333333), wk =   0.0138889
        k(   21) = (   0.0000000   0.2500000   0.4166667), wk =   0.0138889
        k(   22) = (   0.0000000   0.2500000  -0.5000000), wk =   0.0069444
        k(   23) = (   0.0000000   0.3333333   0.3333333), wk =   0.0069444
        k(   24) = (   0.0000000   0.3333333   0.4166667), wk =   0.0138889
        k(   25) = (   0.0000000   0.3333333  -0.5000000), wk =   0.0069444
        k(   26) = (   0.0000000   0.4166667   0.4166667), wk =   0.0069444
        k(   27) = (   0.0000000   0.4166667  -0.5000000), wk =   0.0069444
        k(   28) = (   0.0000000  -0.5000000  -0.5000000), wk =   0.0017361
        k(   29) = (   0.0833333   0.0833333   0.0833333), wk =   0.0046296
        k(   30) = (   0.0833333   0.0833333   0.1666667), wk =   0.0138889
        k(   31) = (   0.0833333   0.0833333   0.2500000), wk =   0.0138889
        k(   32) = (   0.0833333   0.0833333   0.3333333), wk =   0.0138889
        k(   33) = (   0.0833333   0.0833333   0.4166667), wk =   0.0138889
        k(   34) = (   0.0833333   0.0833333  -0.5000000), wk =   0.0069444
        k(   35) = (   0.0833333   0.1666667   0.1666667), wk =   0.0138889
        k(   36) = (   0.0833333   0.1666667   0.2500000), wk =   0.0277778
        k(   37) = (   0.0833333   0.1666667   0.3333333), wk =   0.0277778
        k(   38) = (   0.0833333   0.1666667   0.4166667), wk =   0.0277778
        k(   39) = (   0.0833333   0.1666667  -0.5000000), wk =   0.0138889
        k(   40) = (   0.0833333   0.2500000   0.2500000), wk =   0.0138889
        k(   41) = (   0.0833333   0.2500000   0.3333333), wk =   0.0277778
        k(   42) = (   0.0833333   0.2500000   0.4166667), wk =   0.0277778
        k(   43) = (   0.0833333   0.2500000  -0.5000000), wk =   0.0138889
        k(   44) = (   0.0833333   0.3333333   0.3333333), wk =   0.0138889
        k(   45) = (   0.0833333   0.3333333   0.4166667), wk =   0.0277778
        k(   46) = (   0.0833333   0.3333333  -0.5000000), wk =   0.0138889
        k(   47) = (   0.0833333   0.4166667   0.4166667), wk =   0.0138889
        k(   48) = (   0.0833333   0.4166667  -0.5000000), wk =   0.0138889
        k(   49) = (   0.0833333  -0.5000000  -0.5000000), wk =   0.0034722
        k(   50) = (   0.1666667   0.1666667   0.1666667), wk =   0.0046296
        k(   51) = (   0.1666667   0.1666667   0.2500000), wk =   0.0138889
        k(   52) = (   0.1666667   0.1666667   0.3333333), wk =   0.0138889
        k(   53) = (   0.1666667   0.1666667   0.4166667), wk =   0.0138889
        k(   54) = (   0.1666667   0.1666667  -0.5000000), wk =   0.0069444
        k(   55) = (   0.1666667   0.2500000   0.2500000), wk =   0.0138889
        k(   56) = (   0.1666667   0.2500000   0.3333333), wk =   0.0277778
        k(   57) = (   0.1666667   0.2500000   0.4166667), wk =   0.0277778
        k(   58) = (   0.1666667   0.2500000  -0.5000000), wk =   0.0138889
        k(   59) = (   0.1666667   0.3333333   0.3333333), wk =   0.0138889
        k(   60) = (   0.1666667   0.3333333   0.4166667), wk =   0.0277778
        k(   61) = (   0.1666667   0.3333333  -0.5000000), wk =   0.0138889
        k(   62) = (   0.1666667   0.4166667   0.4166667), wk =   0.0138889
        k(   63) = (   0.1666667   0.4166667  -0.5000000), wk =   0.0138889
        k(   64) = (   0.1666667  -0.5000000  -0.5000000), wk =   0.0034722
        k(   65) = (   0.2500000   0.2500000   0.2500000), wk =   0.0046296
        k(   66) = (   0.2500000   0.2500000   0.3333333), wk =   0.0138889
        k(   67) = (   0.2500000   0.2500000   0.4166667), wk =   0.0138889
        k(   68) = (   0.2500000   0.2500000  -0.5000000), wk =   0.0069444
        k(   69) = (   0.2500000   0.3333333   0.3333333), wk =   0.0138889
        k(   70) = (   0.2500000   0.3333333   0.4166667), wk =   0.0277778
        k(   71) = (   0.2500000   0.3333333  -0.5000000), wk =   0.0138889
        k(   72) = (   0.2500000   0.4166667   0.4166667), wk =   0.0138889
        k(   73) = (   0.2500000   0.4166667  -0.5000000), wk =   0.0138889
        k(   74) = (   0.2500000  -0.5000000  -0.5000000), wk =   0.0034722
        k(   75) = (   0.3333333   0.3333333   0.3333333), wk =   0.0046296
        k(   76) = (   0.3333333   0.3333333   0.4166667), wk =   0.0138889
        k(   77) = (   0.3333333   0.3333333  -0.5000000), wk =   0.0069444
        k(   78) = (   0.3333333   0.4166667   0.4166667), wk =   0.0138889
        k(   79) = (   0.3333333   0.4166667  -0.5000000), wk =   0.0138889
        k(   80) = (   0.3333333  -0.5000000  -0.5000000), wk =   0.0034722
        k(   81) = (   0.4166667   0.4166667   0.4166667), wk =   0.0046296
        k(   82) = (   0.4166667   0.4166667  -0.5000000), wk =   0.0069444
        k(   83) = (   0.4166667  -0.5000000  -0.5000000), wk =   0.0034722
        k(   84) = (  -0.5000000  -0.5000000  -0.5000000), wk =   0.0005787

                       cryst. coord.
        k(    1) = (   0.0000000   0.0000000   0.0000000), wk =   0.0005787
        k(    2) = (   0.0000000   0.0000000   0.0833333), wk =   0.0034722
        k(    3) = (   0.0000000   0.0000000   0.1666667), wk =   0.0034722
        k(    4) = (   0.0000000   0.0000000   0.2500000), wk =   0.0034722
        k(    5) = (   0.0000000   0.0000000   0.3333333), wk =   0.0034722
        k(    6) = (   0.0000000   0.0000000   0.4166667), wk =   0.0034722
        k(    7) = (   0.0000000   0.0000000  -0.5000000), wk =   0.0017361
        k(    8) = (   0.0000000   0.0833333   0.0833333), wk =   0.0069444
        k(    9) = (   0.0000000   0.0833333   0.1666667), wk =   0.0138889
        k(   10) = (   0.0000000   0.0833333   0.2500000), wk =   0.0138889
        k(   11) = (   0.0000000   0.0833333   0.3333333), wk =   0.0138889
        k(   12) = (   0.0000000   0.0833333   0.4166667), wk =   0.0138889
        k(   13) = (   0.0000000   0.0833333  -0.5000000), wk =   0.0069444
        k(   14) = (   0.0000000   0.1666667   0.1666667), wk =   0.0069444
        k(   15) = (   0.0000000   0.1666667   0.2500000), wk =   0.0138889
        k(   16) = (   0.0000000   0.1666667   0.3333333), wk =   0.0138889
        k(   17) = (   0.0000000   0.1666667   0.4166667), wk =   0.0138889
        k(   18) = (   0.0000000   0.1666667  -0.5000000), wk =   0.0069444
        k(   19) = (   0.0000000   0.2500000   0.2500000), wk =   0.0069444
        k(   20) = (   0.0000000   0.2500000   0.3333333), wk =   0.0138889
        k(   21) = (   0.0000000   0.2500000   0.4166667), wk =   0.0138889
        k(   22) = (   0.0000000   0.2500000  -0.5000000), wk =   0.0069444
        k(   23) = (   0.0000000   0.3333333   0.3333333), wk =   0.0069444
        k(   24) = (   0.0000000   0.3333333   0.4166667), wk =   0.0138889
        k(   25) = (   0.0000000   0.3333333  -0.5000000), wk =   0.0069444
        k(   26) = (   0.0000000   0.4166667   0.4166667), wk =   0.0069444
        k(   27) = (   0.0000000   0.4166667  -0.5000000), wk =   0.0069444
        k(   28) = (   0.0000000  -0.5000000  -0.5000000), wk =   0.0017361
        k(   29) = (   0.0833333   0.0833333   0.0833333), wk =   0.0046296
        k(   30) = (   0.0833333   0.0833333   0.1666667), wk =   0.0138889
        k(   31) = (   0.0833333   0.0833333   0.2500000), wk =   0.0138889
        k(   32) = (   0.0833333   0.0833333   0.3333333), wk =   0.0138889
        k(   33) = (   0.0833333   0.0833333   0.4166667), wk =   0.0138889
        k(   34) = (   0.0833333   0.0833333  -0.5000000), wk =   0.0069444
        k(   35) = (   0.0833333   0.1666667   0.1666667), wk =   0.0138889
        k(   36) = (   0.0833333   0.1666667   0.2500000), wk =   0.0277778
        k(   37) = (   0.0833333   0.1666667   0.3333333), wk =   0.0277778
        k(   38) = (   0.0833333   0.1666667   0.4166667), wk =   0.0277778
        k(   39) = (   0.0833333   0.1666667  -0.5000000), wk =   0.0138889
        k(   40) = (   0.0833333   0.2500000   0.2500000), wk =   0.0138889
        k(   41) = (   0.0833333   0.2500000   0.3333333), wk =   0.0277778
        k(   42) = (   0.0833333   0.2500000   0.4166667), wk =   0.0277778
        k(   43) = (   0.0833333   0.2500000  -0.5000000), wk =   0.0138889
        k(   44) = (   0.0833333   0.3333333   0.3333333), wk =   0.0138889
        k(   45) = (   0.0833333   0.3333333   0.4166667), wk =   0.0277778
        k(   46) = (   0.0833333   0.3333333  -0.5000000), wk =   0.0138889
        k(   47) = (   0.0833333   0.4166667   0.4166667), wk =   0.0138889
        k(   48) = (   0.0833333   0.4166667  -0.5000000), wk =   0.0138889
        k(   49) = (   0.0833333  -0.5000000  -0.5000000), wk =   0.0034722
        k(   50) = (   0.1666667   0.1666667   0.1666667), wk =   0.0046296
        k(   51) = (   0.1666667   0.1666667   0.2500000), wk =   0.0138889
        k(   52) = (   0.1666667   0.1666667   0.3333333), wk =   0.0138889
        k(   53) = (   0.1666667   0.1666667   0.4166667), wk =   0.0138889
        k(   54) = (   0.1666667   0.1666667  -0.5000000), wk =   0.0069444
        k(   55) = (   0.1666667   0.2500000   0.2500000), wk =   0.0138889
        k(   56) = (   0.1666667   0.2500000   0.3333333), wk =   0.0277778
        k(   57) = (   0.1666667   0.2500000   0.4166667), wk =   0.0277778
        k(   58) = (   0.1666667   0.2500000  -0.5000000), wk =   0.0138889
        k(   59) = (   0.1666667   0.3333333   0.3333333), wk =   0.0138889
        k(   60) = (   0.1666667   0.3333333   0.4166667), wk =   0.0277778
        k(   61) = (   0.1666667   0.3333333  -0.5000000), wk =   0.0138889
        k(   62) = (   0.1666667   0.4166667   0.4166667), wk =   0.0138889
        k(   63) = (   0.1666667   0.4166667  -0.5000000), wk =   0.0138889
        k(   64) = (   0.1666667  -0.5000000  -0.5000000), wk =   0.0034722
        k(   65) = (   0.2500000   0.2500000   0.2500000), wk =   0.0046296
        k(   66) = (   0.2500000   0.2500000   0.3333333), wk =   0.0138889
        k(   67) = (   0.2500000   0.2500000   0.4166667), wk =   0.0138889
        k(   68) = (   0.2500000   0.2500000  -0.5000000), wk =   0.0069444
        k(   69) = (   0.2500000   0.3333333   0.3333333), wk =   0.0138889
        k(   70) = (   0.2500000   0.3333333   0.4166667), wk =   0.0277778
        k(   71) = (   0.2500000   0.3333333  -0.5000000), wk =   0.0138889
        k(   72) = (   0.2500000   0.4166667   0.4166667), wk =   0.0138889
        k(   73) = (   0.2500000   0.4166667  -0.5000000), wk =   0.0138889
        k(   74) = (   0.2500000  -0.5000000  -0.5000000), wk =   0.0034722
        k(   75) = (   0.3333333   0.3333333   0.3333333), wk =   0.0046296
        k(   76) = (   0.3333333   0.3333333   0.4166667), wk =   0.0138889
        k(   77) = (   0.3333333   0.3333333  -0.5000000), wk =   0.0069444
        k(   78) = (   0.3333333   0.4166667   0.4166667), wk =   0.0138889
        k(   79) = (   0.3333333   0.4166667  -0.5000000), wk =   0.0138889
        k(   80) = (   0.3333333  -0.5000000  -0.5000000), wk =   0.0034722
        k(   81) = (   0.4166667   0.4166667   0.4166667), wk =   0.0046296
        k(   82) = (   0.4166667   0.4166667  -0.5000000), wk =   0.0069444
        k(   83) = (   0.4166667  -0.5000000  -0.5000000), wk =   0.0034722
        k(   84) = (  -0.5000000  -0.5000000  -0.5000000), wk =   0.0005787

     Dense  grid:    37385 G-vectors     FFT dimensions: (  45,  45,  45)

     Smooth grid:    13205 G-vectors     FFT dimensions: (  30,  30,  30)

     Dynamical RAM for                 wfc:       0.95 MB

     Dynamical RAM for     wfc (w. buffer):     161.39 MB

     Dynamical RAM for           str. fact:       1.14 MB

     Dynamical RAM for           local pot:       0.00 MB

     Dynamical RAM for          nlocal pot:       1.81 MB

     Dynamical RAM for                qrad:       3.05 MB

     Dynamical RAM for          rho,v,vnew:       7.59 MB

     Dynamical RAM for               rhoin:       2.53 MB

     Dynamical RAM for            rho*nmix:      18.25 MB

     Dynamical RAM for           G-vectors:       2.24 MB

     Dynamical RAM for          h,s,v(r/c):       0.26 MB

     Dynamical RAM for          <psi|beta>:       0.04 MB

     Dynamical RAM for                 psi:       1.91 MB

     Dynamical RAM for                hpsi:       1.91 MB

     Dynamical RAM for                spsi:       1.91 MB

     Dynamical RAM for      wfcinit/wfcrot:       1.94 MB

     Dynamical RAM for           addusdens:     108.39 MB

     Dynamical RAM for          addusforce:     110.69 MB

     Dynamical RAM for         addusstress:     115.52 MB

     Estimated static dynamical RAM per process >     185.64 MB

     Estimated max dynamical RAM per process >     319.41 MB

     Atomic positions and unit cell read from directory:
     ./out/aiida.save/
 

     Check: negative core charge=   -0.000017
     Generating pointlists ...
     new r_m :   0.2917 (alat units)  2.0014 (a.u.) for type    1
     new r_m :   0.2917 (alat units)  2.0014 (a.u.) for type    2

     The initial density is read from file :
     ./out/aiida.save/charge-density

     Starting wfcs from file
     Checking if some PAW data can be deallocated... 

     total cpu time spent up to now is        3.6 secs

     per-process dynamical memory:   396.3 Mb

     Self-consistent Calculation
[tb_dev] Currently allocated     3.05E-05 Mbytes, locked:    0 /   2
[tb_pin] Currently allocated     0.00E+00 Mbytes, locked:    0 /   0

     iteration #  1     ecut=    45.00 Ry     beta= 0.10
     Davidson diagonalization with overlap

---- Real-time Memory Report at c_bands before calling an iterative solver
           567 MiB given to the printing process from OS
           387 MiB allocation reported by mallinfo(arena+hblkhd)
         59134 MiB available memory on the node where the printing process lives
     GPU memory used/free/total (MiB): 588 / 15692 / 16280
------------------
     ethr =  1.00E-05,  avg # of iterations =  1.4

     Threshold (ethr) on eigenvalues was too large:
     Diagonalizing with lowered threshold

     Davidson diagonalization with overlap

---- Real-time Memory Report at c_bands before calling an iterative solver
          1083 MiB given to the printing process from OS
           851 MiB allocation reported by mallinfo(arena+hblkhd)
         58086 MiB available memory on the node where the printing process lives
     GPU memory used/free/total (MiB): 876 / 15404 / 16280
------------------
     ethr =  2.21E-08,  avg # of iterations =  3.0

     total cpu time spent up to now is       11.2 secs

     total energy              =   -1224.89885644 Ry
     estimated scf accuracy    <       0.00001285 Ry

     total magnetization       =     1.53 Bohr mag/cell
     absolute magnetization    =     2.36 Bohr mag/cell
[tb_dev] Currently allocated     1.15E+00 Mbytes, locked:    0 /  10
[tb_pin] Currently allocated     0.00E+00 Mbytes, locked:    0 /   0

     iteration #  2     ecut=    45.00 Ry     beta= 0.10
     Davidson diagonalization with overlap

---- Real-time Memory Report at c_bands before calling an iterative solver
          1193 MiB given to the printing process from OS
           859 MiB allocation reported by mallinfo(arena+hblkhd)
         58067 MiB available memory on the node where the printing process lives
     GPU memory used/free/total (MiB): 922 / 15358 / 16280
------------------
     ethr =  2.01E-08,  avg # of iterations =  1.0

     total cpu time spent up to now is       14.5 secs

     total energy              =   -1224.89885935 Ry
     estimated scf accuracy    <       0.00001230 Ry

     total magnetization       =     1.53 Bohr mag/cell
     absolute magnetization    =     2.35 Bohr mag/cell
[tb_dev] Currently allocated     1.15E+00 Mbytes, locked:    0 /  10
[tb_pin] Currently allocated     0.00E+00 Mbytes, locked:    0 /   0

     iteration #  3     ecut=    45.00 Ry     beta= 0.10
     Davidson diagonalization with overlap

---- Real-time Memory Report at c_bands before calling an iterative solver
          1263 MiB given to the printing process from OS
           861 MiB allocation reported by mallinfo(arena+hblkhd)
         58067 MiB available memory on the node where the printing process lives
     GPU memory used/free/total (MiB): 922 / 15358 / 16280
------------------
     ethr =  1.92E-08,  avg # of iterations =  1.0

     total cpu time spent up to now is       17.4 secs

     total energy              =   -1224.89886455 Ry
     estimated scf accuracy    <       0.00001148 Ry

     total magnetization       =     1.52 Bohr mag/cell
     absolute magnetization    =     2.34 Bohr mag/cell
[tb_dev] Currently allocated     1.15E+00 Mbytes, locked:    0 /  10
[tb_pin] Currently allocated     0.00E+00 Mbytes, locked:    0 /   0

     iteration #  4     ecut=    45.00 Ry     beta= 0.10
     Davidson diagonalization with overlap

---- Real-time Memory Report at c_bands before calling an iterative solver
          1332 MiB given to the printing process from OS
           864 MiB allocation reported by mallinfo(arena+hblkhd)
         58064 MiB available memory on the node where the printing process lives
     GPU memory used/free/total (MiB): 922 / 15358 / 16280
------------------
     ethr =  1.79E-08,  avg # of iterations =  1.2

     total cpu time spent up to now is       20.6 secs

     total energy              =   -1224.89875465 Ry
     estimated scf accuracy    <       0.00001116 Ry

     total magnetization       =     1.51 Bohr mag/cell
     absolute magnetization    =     2.33 Bohr mag/cell
[tb_dev] Currently allocated     1.15E+00 Mbytes, locked:    0 /  10
[tb_pin] Currently allocated     0.00E+00 Mbytes, locked:    0 /   0

     iteration #  5     ecut=    45.00 Ry     beta= 0.10
     Davidson diagonalization with overlap

---- Real-time Memory Report at c_bands before calling an iterative solver
          1400 MiB given to the printing process from OS
           868 MiB allocation reported by mallinfo(arena+hblkhd)
         58062 MiB available memory on the node where the printing process lives
     GPU memory used/free/total (MiB): 922 / 15358 / 16280
------------------
     ethr =  1.74E-08,  avg # of iterations =  4.2

     total cpu time spent up to now is       26.1 secs

     total energy              =   -1224.89874894 Ry
     estimated scf accuracy    <       0.00001799 Ry

     total magnetization       =     1.58 Bohr mag/cell
     absolute magnetization    =     2.43 Bohr mag/cell
[tb_dev] Currently allocated     1.15E+00 Mbytes, locked:    0 /  10
[tb_pin] Currently allocated     0.00E+00 Mbytes, locked:    0 /   0

     iteration #  6     ecut=    45.00 Ry     beta= 0.10
     Davidson diagonalization with overlap

---- Real-time Memory Report at c_bands before calling an iterative solver
          1472 MiB given to the printing process from OS
           871 MiB allocation reported by mallinfo(arena+hblkhd)
         58062 MiB available memory on the node where the printing process lives
     GPU memory used/free/total (MiB): 922 / 15358 / 16280
------------------
     ethr =  1.74E-08,  avg # of iterations =  4.6

     total cpu time spent up to now is       32.0 secs

     total energy              =   -1224.89884633 Ry
     estimated scf accuracy    <       0.00001109 Ry

     total magnetization       =     1.48 Bohr mag/cell
     absolute magnetization    =     2.28 Bohr mag/cell
[tb_dev] Currently allocated     1.15E+00 Mbytes, locked:    0 /  10
[tb_pin] Currently allocated     0.00E+00 Mbytes, locked:    0 /   0

     iteration #  7     ecut=    45.00 Ry     beta= 0.10
     Davidson diagonalization with overlap

---- Real-time Memory Report at c_bands before calling an iterative solver
          1540 MiB given to the printing process from OS
           873 MiB allocation reported by mallinfo(arena+hblkhd)
         58057 MiB available memory on the node where the printing process lives
     GPU memory used/free/total (MiB): 922 / 15358 / 16280
------------------
     ethr =  1.73E-08,  avg # of iterations =  2.9

     total cpu time spent up to now is       36.3 secs

     total energy              =   -1224.89878847 Ry
     estimated scf accuracy    <       0.00001219 Ry

     total magnetization       =     1.51 Bohr mag/cell
     absolute magnetization    =     2.34 Bohr mag/cell
[tb_dev] Currently allocated     1.15E+00 Mbytes, locked:    0 /  10
[tb_pin] Currently allocated     0.00E+00 Mbytes, locked:    0 /   0

     iteration #  8     ecut=    45.00 Ry     beta= 0.10
     Davidson diagonalization with overlap

---- Real-time Memory Report at c_bands before calling an iterative solver
          1600 MiB given to the printing process from OS
           876 MiB allocation reported by mallinfo(arena+hblkhd)
         58055 MiB available memory on the node where the printing process lives
     GPU memory used/free/total (MiB): 922 / 15358 / 16280
------------------
     ethr =  1.73E-08,  avg # of iterations =  4.6

     total cpu time spent up to now is       42.2 secs

     total energy              =   -1224.89798890 Ry
     estimated scf accuracy    <       0.00001302 Ry

     total magnetization       =     1.41 Bohr mag/cell
     absolute magnetization    =     2.19 Bohr mag/cell
[tb_dev] Currently allocated     1.15E+00 Mbytes, locked:    0 /  10
[tb_pin] Currently allocated     0.00E+00 Mbytes, locked:    0 /   0

     iteration #  9     ecut=    45.00 Ry     beta= 0.10
     Davidson diagonalization with overlap

---- Real-time Memory Report at c_bands before calling an iterative solver
          1623 MiB given to the printing process from OS
           879 MiB allocation reported by mallinfo(arena+hblkhd)
         58051 MiB available memory on the node where the printing process lives
     GPU memory used/free/total (MiB): 922 / 15358 / 16280
------------------
     ethr =  1.73E-08,  avg # of iterations =  5.9

     total cpu time spent up to now is       49.3 secs

     total energy              =   -1224.89824229 Ry
     estimated scf accuracy    <       0.00003202 Ry

     total magnetization       =     1.65 Bohr mag/cell
     absolute magnetization    =     2.55 Bohr mag/cell
[tb_dev] Currently allocated     1.15E+00 Mbytes, locked:    0 /  10
[tb_pin] Currently allocated     0.00E+00 Mbytes, locked:    0 /   0

     iteration # 10     ecut=    45.00 Ry     beta= 0.10
     Davidson diagonalization with overlap

---- Real-time Memory Report at c_bands before calling an iterative solver
          1647 MiB given to the printing process from OS
           882 MiB allocation reported by mallinfo(arena+hblkhd)
         58049 MiB available memory on the node where the printing process lives
     GPU memory used/free/total (MiB): 922 / 15358 / 16280
------------------
     ethr =  1.73E-08,  avg # of iterations =  5.8

     total cpu time spent up to now is       56.4 secs

     total energy              =   -1224.89885750 Ry
     estimated scf accuracy    <       0.00001350 Ry

     total magnetization       =     1.43 Bohr mag/cell
     absolute magnetization    =     2.20 Bohr mag/cell
[tb_dev] Currently allocated     1.15E+00 Mbytes, locked:    0 /  10
[tb_pin] Currently allocated     0.00E+00 Mbytes, locked:    0 /   0

     iteration # 11     ecut=    45.00 Ry     beta= 0.10
     Davidson diagonalization with overlap

---- Real-time Memory Report at c_bands before calling an iterative solver
          1670 MiB given to the printing process from OS
           884 MiB allocation reported by mallinfo(arena+hblkhd)
         58049 MiB available memory on the node where the printing process lives
     GPU memory used/free/total (MiB): 922 / 15358 / 16280
------------------
     ethr =  1.73E-08,  avg # of iterations =  3.4

     total cpu time spent up to now is       61.2 secs

     total energy              =   -1224.89866903 Ry
     estimated scf accuracy    <       0.00001300 Ry

     total magnetization       =     1.47 Bohr mag/cell
     absolute magnetization    =     2.27 Bohr mag/cell
[tb_dev] Currently allocated     1.15E+00 Mbytes, locked:    0 /  10
[tb_pin] Currently allocated     0.00E+00 Mbytes, locked:    0 /   0

     iteration # 12     ecut=    45.00 Ry     beta= 0.10
     Davidson diagonalization with overlap

---- Real-time Memory Report at c_bands before calling an iterative solver
          1692 MiB given to the printing process from OS
           886 MiB allocation reported by mallinfo(arena+hblkhd)
         58047 MiB available memory on the node where the printing process lives
     GPU memory used/free/total (MiB): 922 / 15358 / 16280
------------------
     ethr =  1.73E-08,  avg # of iterations =  5.2

     total cpu time spent up to now is       67.5 secs

     total energy              =   -1224.89869132 Ry
     estimated scf accuracy    <       0.00001654 Ry

     total magnetization       =     1.58 Bohr mag/cell
     absolute magnetization    =     2.44 Bohr mag/cell
[tb_dev] Currently allocated     1.15E+00 Mbytes, locked:    0 /  10
[tb_pin] Currently allocated     0.00E+00 Mbytes, locked:    0 /   0

     iteration # 13     ecut=    45.00 Ry     beta= 0.10
     Davidson diagonalization with overlap

---- Real-time Memory Report at c_bands before calling an iterative solver
          1715 MiB given to the printing process from OS
           888 MiB allocation reported by mallinfo(arena+hblkhd)
         58046 MiB available memory on the node where the printing process lives
     GPU memory used/free/total (MiB): 922 / 15358 / 16280
------------------
     ethr =  1.73E-08,  avg # of iterations =  4.6

     total cpu time spent up to now is       73.2 secs

     total energy              =   -1224.89833251 Ry
     estimated scf accuracy    <       0.00003189 Ry

     total magnetization       =     1.65 Bohr mag/cell
     absolute magnetization    =     2.55 Bohr mag/cell
[tb_dev] Currently allocated     1.15E+00 Mbytes, locked:    0 /  10
[tb_pin] Currently allocated     0.00E+00 Mbytes, locked:    0 /   0

     iteration # 14     ecut=    45.00 Ry     beta= 0.10
     Davidson diagonalization with overlap

---- Real-time Memory Report at c_bands before calling an iterative solver
          1737 MiB given to the printing process from OS
           890 MiB allocation reported by mallinfo(arena+hblkhd)
         58043 MiB available memory on the node where the printing process lives
     GPU memory used/free/total (MiB): 922 / 15358 / 16280
------------------
     ethr =  1.73E-08,  avg # of iterations =  5.8

     total cpu time spent up to now is       80.1 secs

     total energy              =   -1224.87714967 Ry
     estimated scf accuracy    <       0.00001243 Ry

     total magnetization       =     1.45 Bohr mag/cell
     absolute magnetization    =     2.23 Bohr mag/cell
[tb_dev] Currently allocated     1.15E+00 Mbytes, locked:    0 /  10
[tb_pin] Currently allocated     0.00E+00 Mbytes, locked:    0 /   0

     iteration # 15     ecut=    45.00 Ry     beta= 0.10
     Davidson diagonalization with overlap

---- Real-time Memory Report at c_bands before calling an iterative solver
          1761 MiB given to the printing process from OS
           893 MiB allocation reported by mallinfo(arena+hblkhd)
         58039 MiB available memory on the node where the printing process lives
     GPU memory used/free/total (MiB): 922 / 15358 / 16280
------------------
     ethr =  1.73E-08,  avg # of iterations =  8.8

     total cpu time spent up to now is       89.8 secs

     total energy              =   -1224.88626340 Ry
     estimated scf accuracy    <       0.00037654 Ry

     total magnetization       =     0.13 Bohr mag/cell
     absolute magnetization    =     0.24 Bohr mag/cell
[tb_dev] Currently allocated     1.15E+00 Mbytes, locked:    0 /  10
[tb_pin] Currently allocated     0.00E+00 Mbytes, locked:    0 /   0

     iteration # 16     ecut=    45.00 Ry     beta= 0.10
     Davidson diagonalization with overlap

---- Real-time Memory Report at c_bands before calling an iterative solver
          1783 MiB given to the printing process from OS
           895 MiB allocation reported by mallinfo(arena+hblkhd)
         58042 MiB available memory on the node where the printing process lives
     GPU memory used/free/total (MiB): 922 / 15358 / 16280
------------------
     ethr =  1.73E-08,  avg # of iterations =  8.3

     total cpu time spent up to now is       99.0 secs

     total energy              =   -1224.89180479 Ry
     estimated scf accuracy    <       0.00005474 Ry

     total magnetization       =     1.13 Bohr mag/cell
     absolute magnetization    =     1.77 Bohr mag/cell
[tb_dev] Currently allocated     1.15E+00 Mbytes, locked:    0 /  10
[tb_pin] Currently allocated     0.00E+00 Mbytes, locked:    0 /   0

     iteration # 17     ecut=    45.00 Ry     beta= 0.10
     Davidson diagonalization with overlap

---- Real-time Memory Report at c_bands before calling an iterative solver
          1805 MiB given to the printing process from OS
           897 MiB allocation reported by mallinfo(arena+hblkhd)
         58038 MiB available memory on the node where the printing process lives
     GPU memory used/free/total (MiB): 922 / 15358 / 16280
------------------
     ethr =  1.73E-08,  avg # of iterations =  7.8

     total cpu time spent up to now is      107.7 secs

     total energy              =   -1224.89773866 Ry
     estimated scf accuracy    <       0.00023441 Ry

     total magnetization       =     1.78 Bohr mag/cell
     absolute magnetization    =     2.80 Bohr mag/cell
[tb_dev] Currently allocated     1.15E+00 Mbytes, locked:    0 /  10
[tb_pin] Currently allocated     0.00E+00 Mbytes, locked:    0 /   0

     iteration # 18     ecut=    45.00 Ry     beta= 0.10
     Davidson diagonalization with overlap

---- Real-time Memory Report at c_bands before calling an iterative solver
          1810 MiB given to the printing process from OS
           899 MiB allocation reported by mallinfo(arena+hblkhd)
         58039 MiB available memory on the node where the printing process lives
     GPU memory used/free/total (MiB): 922 / 15358 / 16280
------------------
     ethr =  1.73E-08,  avg # of iterations =  6.3

     total cpu time spent up to now is      115.0 secs

     total energy              =   -1224.89874848 Ry
     estimated scf accuracy    <       0.00001261 Ry

     total magnetization       =     1.54 Bohr mag/cell
     absolute magnetization    =     2.37 Bohr mag/cell
[tb_dev] Currently allocated     1.15E+00 Mbytes, locked:    0 /  10
[tb_pin] Currently allocated     0.00E+00 Mbytes, locked:    0 /   0

     iteration # 19     ecut=    45.00 Ry     beta= 0.10
     Davidson diagonalization with overlap

---- Real-time Memory Report at c_bands before calling an iterative solver
          1813 MiB given to the printing process from OS
           902 MiB allocation reported by mallinfo(arena+hblkhd)
         58036 MiB available memory on the node where the printing process lives
     GPU memory used/free/total (MiB): 922 / 15358 / 16280
------------------
     ethr =  1.73E-08,  avg # of iterations =  5.1

     total cpu time spent up to now is      121.2 secs

     total energy              =   -1224.89884415 Ry
     estimated scf accuracy    <       0.00001312 Ry

     total magnetization       =     1.42 Bohr mag/cell
     absolute magnetization    =     2.20 Bohr mag/cell
[tb_dev] Currently allocated     1.15E+00 Mbytes, locked:    0 /  10
[tb_pin] Currently allocated     0.00E+00 Mbytes, locked:    0 /   0

     iteration # 20     ecut=    45.00 Ry     beta= 0.10
     Davidson diagonalization with overlap

---- Real-time Memory Report at c_bands before calling an iterative solver
          1813 MiB given to the printing process from OS
           904 MiB allocation reported by mallinfo(arena+hblkhd)
         58030 MiB available memory on the node where the printing process lives
     GPU memory used/free/total (MiB): 922 / 15358 / 16280
------------------
     ethr =  1.73E-08,  avg # of iterations =  3.8

     total cpu time spent up to now is      126.3 secs

     total energy              =   -1224.89887248 Ry
     estimated scf accuracy    <       0.00001228 Ry

     total magnetization       =     1.48 Bohr mag/cell
     absolute magnetization    =     2.28 Bohr mag/cell
[tb_dev] Currently allocated     1.15E+00 Mbytes, locked:    0 /  10
[tb_pin] Currently allocated     0.00E+00 Mbytes, locked:    0 /   0

     iteration # 21     ecut=    45.00 Ry     beta= 0.10
     Davidson diagonalization with overlap

---- Real-time Memory Report at c_bands before calling an iterative solver
          1816 MiB given to the printing process from OS
           906 MiB allocation reported by mallinfo(arena+hblkhd)
         58030 MiB available memory on the node where the printing process lives
     GPU memory used/free/total (MiB): 922 / 15358 / 16280
------------------
     ethr =  1.73E-08,  avg # of iterations =  1.4

     total cpu time spent up to now is      129.5 secs

     total energy              =   -1224.89887941 Ry
     estimated scf accuracy    <       0.00001206 Ry

     total magnetization       =     1.49 Bohr mag/cell
     absolute magnetization    =     2.30 Bohr mag/cell
[tb_dev] Currently allocated     1.15E+00 Mbytes, locked:    0 /  10
[tb_pin] Currently allocated     0.00E+00 Mbytes, locked:    0 /   0

     iteration # 22     ecut=    45.00 Ry     beta= 0.10
     Davidson diagonalization with overlap

---- Real-time Memory Report at c_bands before calling an iterative solver
          1818 MiB given to the printing process from OS
           908 MiB allocation reported by mallinfo(arena+hblkhd)
         58031 MiB available memory on the node where the printing process lives
     GPU memory used/free/total (MiB): 922 / 15358 / 16280
------------------
     ethr =  1.73E-08,  avg # of iterations =  2.0

     total cpu time spent up to now is      133.0 secs

     total energy              =   -1224.89888519 Ry
     estimated scf accuracy    <       0.00001158 Ry

     total magnetization       =     1.47 Bohr mag/cell
     absolute magnetization    =     2.27 Bohr mag/cell
[tb_dev] Currently allocated     1.15E+00 Mbytes, locked:    0 /  10
[tb_pin] Currently allocated     0.00E+00 Mbytes, locked:    0 /   0

     iteration # 23     ecut=    45.00 Ry     beta= 0.10
     Davidson diagonalization with overlap

---- Real-time Memory Report at c_bands before calling an iterative solver
          1820 MiB given to the printing process from OS
           910 MiB allocation reported by mallinfo(arena+hblkhd)
         58029 MiB available memory on the node where the printing process lives
     GPU memory used/free/total (MiB): 922 / 15358 / 16280
------------------
     ethr =  1.73E-08,  avg # of iterations =  3.4

     total cpu time spent up to now is      137.8 secs

     total energy              =   -1224.89880180 Ry
     estimated scf accuracy    <       0.00001249 Ry

     total magnetization       =     1.43 Bohr mag/cell
     absolute magnetization    =     2.21 Bohr mag/cell
[tb_dev] Currently allocated     1.15E+00 Mbytes, locked:    0 /  10
[tb_pin] Currently allocated     0.00E+00 Mbytes, locked:    0 /   0

     iteration # 24     ecut=    45.00 Ry     beta= 0.10
     Davidson diagonalization with overlap

---- Real-time Memory Report at c_bands before calling an iterative solver
          1821 MiB given to the printing process from OS
           912 MiB allocation reported by mallinfo(arena+hblkhd)
         58027 MiB available memory on the node where the printing process lives
     GPU memory used/free/total (MiB): 922 / 15358 / 16280
------------------
     ethr =  1.73E-08,  avg # of iterations =  5.1

     total cpu time spent up to now is      144.4 secs

     total energy              =   -1224.89778448 Ry
     estimated scf accuracy    <       0.00002216 Ry

     total magnetization       =     1.31 Bohr mag/cell
     absolute magnetization    =     2.03 Bohr mag/cell
[tb_dev] Currently allocated     1.15E+00 Mbytes, locked:    0 /  10
[tb_pin] Currently allocated     0.00E+00 Mbytes, locked:    0 /   0

     iteration # 25     ecut=    45.00 Ry     beta= 0.10
     Davidson diagonalization with overlap

---- Real-time Memory Report at c_bands before calling an iterative solver
          1824 MiB given to the printing process from OS
           914 MiB allocation reported by mallinfo(arena+hblkhd)
         58023 MiB available memory on the node where the printing process lives
     GPU memory used/free/total (MiB): 922 / 15358 / 16280
------------------
     ethr =  1.73E-08,  avg # of iterations =  6.2

     total cpu time spent up to now is      151.5 secs

     total energy              =   -1224.89882206 Ry
     estimated scf accuracy    <       0.00001819 Ry

     total magnetization       =     1.59 Bohr mag/cell
     absolute magnetization    =     2.46 Bohr mag/cell
[tb_dev] Currently allocated     1.15E+00 Mbytes, locked:    0 /  10
[tb_pin] Currently allocated     0.00E+00 Mbytes, locked:    0 /   0

     iteration # 26     ecut=    45.00 Ry     beta= 0.10
     Davidson diagonalization with overlap

---- Real-time Memory Report at c_bands before calling an iterative solver
          1827 MiB given to the printing process from OS
           916 MiB allocation reported by mallinfo(arena+hblkhd)
         58022 MiB available memory on the node where the printing process lives
     GPU memory used/free/total (MiB): 922 / 15358 / 16280
------------------
     ethr =  1.73E-08,  avg # of iterations =  1.2

     total cpu time spent up to now is      154.7 secs

     total energy              =   -1224.89879246 Ry
     estimated scf accuracy    <       0.00001651 Ry

     total magnetization       =     1.58 Bohr mag/cell
     absolute magnetization    =     2.44 Bohr mag/cell
[tb_dev] Currently allocated     1.15E+00 Mbytes, locked:    0 /  10
[tb_pin] Currently allocated     0.00E+00 Mbytes, locked:    0 /   0

     iteration # 27     ecut=    45.00 Ry     beta= 0.10
     Davidson diagonalization with overlap

---- Real-time Memory Report at c_bands before calling an iterative solver
          1828 MiB given to the printing process from OS
           919 MiB allocation reported by mallinfo(arena+hblkhd)
         58020 MiB available memory on the node where the printing process lives
     GPU memory used/free/total (MiB): 922 / 15358 / 16280
------------------
     ethr =  1.73E-08,  avg # of iterations =  4.4

     total cpu time spent up to now is      160.3 secs

     total energy              =   -1224.89882845 Ry
     estimated scf accuracy    <       0.00001192 Ry

     total magnetization       =     1.51 Bohr mag/cell
     absolute magnetization    =     2.33 Bohr mag/cell
[tb_dev] Currently allocated     1.15E+00 Mbytes, locked:    0 /  10
[tb_pin] Currently allocated     0.00E+00 Mbytes, locked:    0 /   0

     iteration # 28     ecut=    45.00 Ry     beta= 0.10
     Davidson diagonalization with overlap

---- Real-time Memory Report at c_bands before calling an iterative solver
          1830 MiB given to the printing process from OS
           920 MiB allocation reported by mallinfo(arena+hblkhd)
         58017 MiB available memory on the node where the printing process lives
     GPU memory used/free/total (MiB): 922 / 15358 / 16280
------------------
     ethr =  1.73E-08,  avg # of iterations =  4.4

     total cpu time spent up to now is      166.0 secs

     total energy              =   -1224.89890542 Ry
     estimated scf accuracy    <       0.00001280 Ry

     total magnetization       =     1.43 Bohr mag/cell
     absolute magnetization    =     2.21 Bohr mag/cell
[tb_dev] Currently allocated     1.15E+00 Mbytes, locked:    0 /  10
[tb_pin] Currently allocated     0.00E+00 Mbytes, locked:    0 /   0

     iteration # 29     ecut=    45.00 Ry     beta= 0.10
     Davidson diagonalization with overlap

---- Real-time Memory Report at c_bands before calling an iterative solver
          1833 MiB given to the printing process from OS
           922 MiB allocation reported by mallinfo(arena+hblkhd)
         58017 MiB available memory on the node where the printing process lives
     GPU memory used/free/total (MiB): 922 / 15358 / 16280
------------------
     ethr =  1.73E-08,  avg # of iterations =  1.0

     total cpu time spent up to now is      168.9 secs

     total energy              =   -1224.89889855 Ry
     estimated scf accuracy    <       0.00001293 Ry

     total magnetization       =     1.43 Bohr mag/cell
     absolute magnetization    =     2.21 Bohr mag/cell
[tb_dev] Currently allocated     1.15E+00 Mbytes, locked:    0 /  10
[tb_pin] Currently allocated     0.00E+00 Mbytes, locked:    0 /   0

     iteration # 30     ecut=    45.00 Ry     beta= 0.10
     Davidson diagonalization with overlap

---- Real-time Memory Report at c_bands before calling an iterative solver
          1835 MiB given to the printing process from OS
           924 MiB allocation reported by mallinfo(arena+hblkhd)
         58015 MiB available memory on the node where the printing process lives
     GPU memory used/free/total (MiB): 922 / 15358 / 16280
------------------
     ethr =  1.73E-08,  avg # of iterations =  3.7

     total cpu time spent up to now is      174.3 secs

     total energy              =   -1224.89880761 Ry
     estimated scf accuracy    <       0.00001584 Ry

     total magnetization       =     1.37 Bohr mag/cell
     absolute magnetization    =     2.13 Bohr mag/cell
[tb_dev] Currently allocated     1.15E+00 Mbytes, locked:    0 /  10
[tb_pin] Currently allocated     0.00E+00 Mbytes, locked:    0 /   0

     iteration # 31     ecut=    45.00 Ry     beta= 0.10
     Davidson diagonalization with overlap

---- Real-time Memory Report at c_bands before calling an iterative solver
          1836 MiB given to the printing process from OS
           926 MiB allocation reported by mallinfo(arena+hblkhd)
         58009 MiB available memory on the node where the printing process lives
     GPU memory used/free/total (MiB): 922 / 15358 / 16280
------------------
     ethr =  1.73E-08,  avg # of iterations =  4.4

     total cpu time spent up to now is      179.9 secs

     total energy              =   -1224.89889602 Ry
     estimated scf accuracy    <       0.00001228 Ry

     total magnetization       =     1.46 Bohr mag/cell
     absolute magnetization    =     2.25 Bohr mag/cell
[tb_dev] Currently allocated     1.15E+00 Mbytes, locked:    0 /  10
[tb_pin] Currently allocated     0.00E+00 Mbytes, locked:    0 /   0

     iteration # 32     ecut=    45.00 Ry     beta= 0.10
     Davidson diagonalization with overlap

---- Real-time Memory Report at c_bands before calling an iterative solver
          1839 MiB given to the printing process from OS
           929 MiB allocation reported by mallinfo(arena+hblkhd)
         58011 MiB available memory on the node where the printing process lives
     GPU memory used/free/total (MiB): 922 / 15358 / 16280
------------------
     ethr =  1.73E-08,  avg # of iterations =  1.3

     total cpu time spent up to now is      183.1 secs

     total energy              =   -1224.89882128 Ry
     estimated scf accuracy    <       0.00001230 Ry

     total magnetization       =     1.44 Bohr mag/cell
     absolute magnetization    =     2.23 Bohr mag/cell
[tb_dev] Currently allocated     1.15E+00 Mbytes, locked:    0 /  10
[tb_pin] Currently allocated     0.00E+00 Mbytes, locked:    0 /   0

     iteration # 33     ecut=    45.00 Ry     beta= 0.10
     Davidson diagonalization with overlap

---- Real-time Memory Report at c_bands before calling an iterative solver
          1842 MiB given to the printing process from OS
           930 MiB allocation reported by mallinfo(arena+hblkhd)
         58008 MiB available memory on the node where the printing process lives
     GPU memory used/free/total (MiB): 922 / 15358 / 16280
------------------
     ethr =  1.73E-08,  avg # of iterations =  4.7

     total cpu time spent up to now is      189.6 secs

     total energy              =   -1224.89858526 Ry
     estimated scf accuracy    <       0.00001940 Ry

     total magnetization       =     1.34 Bohr mag/cell
     absolute magnetization    =     2.07 Bohr mag/cell
[tb_dev] Currently allocated     1.15E+00 Mbytes, locked:    0 /  10
[tb_pin] Currently allocated     0.00E+00 Mbytes, locked:    0 /   0

     iteration # 34     ecut=    45.00 Ry     beta= 0.10
     Davidson diagonalization with overlap

---- Real-time Memory Report at c_bands before calling an iterative solver
          1843 MiB given to the printing process from OS
           932 MiB allocation reported by mallinfo(arena+hblkhd)
         58007 MiB available memory on the node where the printing process lives
     GPU memory used/free/total (MiB): 922 / 15358 / 16280
------------------
     ethr =  1.73E-08,  avg # of iterations =  5.4

     total cpu time spent up to now is      196.2 secs

     total energy              =   -1224.89803415 Ry
     estimated scf accuracy    <       0.00001192 Ry

     total magnetization       =     1.49 Bohr mag/cell
     absolute magnetization    =     2.30 Bohr mag/cell
[tb_dev] Currently allocated     1.15E+00 Mbytes, locked:    0 /  10
[tb_pin] Currently allocated     0.00E+00 Mbytes, locked:    0 /   0

     iteration # 35     ecut=    45.00 Ry     beta= 0.10
     Davidson diagonalization with overlap

---- Real-time Memory Report at c_bands before calling an iterative solver
          1845 MiB given to the printing process from OS
           938 MiB allocation reported by mallinfo(arena+hblkhd)
         58003 MiB available memory on the node where the printing process lives
     GPU memory used/free/total (MiB): 922 / 15358 / 16280
------------------
     ethr =  1.73E-08,  avg # of iterations =  5.9

     total cpu time spent up to now is      203.2 secs

     total energy              =   -1224.89855721 Ry
     estimated scf accuracy    <       0.00005557 Ry

     total magnetization       =     1.70 Bohr mag/cell
     absolute magnetization    =     2.63 Bohr mag/cell
[tb_dev] Currently allocated     1.15E+00 Mbytes, locked:    0 /  10
[tb_pin] Currently allocated     0.00E+00 Mbytes, locked:    0 /   0

     iteration # 36     ecut=    45.00 Ry     beta= 0.10
     Davidson diagonalization with overlap

---- Real-time Memory Report at c_bands before calling an iterative solver
          1847 MiB given to the printing process from OS
           939 MiB allocation reported by mallinfo(arena+hblkhd)
         58001 MiB available memory on the node where the printing process lives
     GPU memory used/free/total (MiB): 922 / 15358 / 16280
------------------
     ethr =  1.73E-08,  avg # of iterations =  5.5

     total cpu time spent up to now is      210.0 secs

     total energy              =   -1224.89856440 Ry
     estimated scf accuracy    <       0.00001469 Ry

     total magnetization       =     1.57 Bohr mag/cell
     absolute magnetization    =     2.41 Bohr mag/cell
[tb_dev] Currently allocated     1.15E+00 Mbytes, locked:    0 /  10
[tb_pin] Currently allocated     0.00E+00 Mbytes, locked:    0 /   0

     iteration # 37     ecut=    45.00 Ry     beta= 0.10
     Davidson diagonalization with overlap

---- Real-time Memory Report at c_bands before calling an iterative solver
          1849 MiB given to the printing process from OS
           941 MiB allocation reported by mallinfo(arena+hblkhd)
         58002 MiB available memory on the node where the printing process lives
     GPU memory used/free/total (MiB): 922 / 15358 / 16280
------------------
     ethr =  1.73E-08,  avg # of iterations =  5.3

     total cpu time spent up to now is      216.3 secs

     total energy              =   -1224.89871589 Ry
     estimated scf accuracy    <       0.00004031 Ry

     total magnetization       =     1.67 Bohr mag/cell
     absolute magnetization    =     2.58 Bohr mag/cell
[tb_dev] Currently allocated     1.15E+00 Mbytes, locked:    0 /  10
[tb_pin] Currently allocated     0.00E+00 Mbytes, locked:    0 /   0

     iteration # 38     ecut=    45.00 Ry     beta= 0.10
     Davidson diagonalization with overlap

---- Real-time Memory Report at c_bands before calling an iterative solver
          1851 MiB given to the printing process from OS
           943 MiB allocation reported by mallinfo(arena+hblkhd)
         57997 MiB available memory on the node where the printing process lives
     GPU memory used/free/total (MiB): 922 / 15358 / 16280
------------------
     ethr =  1.73E-08,  avg # of iterations =  2.3

     total cpu time spent up to now is      220.1 secs

     total energy              =   -1224.89858368 Ry
     estimated scf accuracy    <       0.00005263 Ry

     total magnetization       =     1.69 Bohr mag/cell
     absolute magnetization    =     2.62 Bohr mag/cell
[tb_dev] Currently allocated     1.15E+00 Mbytes, locked:    0 /  10
[tb_pin] Currently allocated     0.00E+00 Mbytes, locked:    0 /   0

     iteration # 39     ecut=    45.00 Ry     beta= 0.10
     Davidson diagonalization with overlap

---- Real-time Memory Report at c_bands before calling an iterative solver
          1853 MiB given to the printing process from OS
           945 MiB allocation reported by mallinfo(arena+hblkhd)
         57997 MiB available memory on the node where the printing process lives
     GPU memory used/free/total (MiB): 922 / 15358 / 16280
------------------
     ethr =  1.73E-08,  avg # of iterations =  4.4

     total cpu time spent up to now is      225.9 secs

     total energy              =   -1224.89783991 Ry
     estimated scf accuracy    <       0.00010395 Ry

     total magnetization       =     1.74 Bohr mag/cell
     absolute magnetization    =     2.70 Bohr mag/cell
[tb_dev] Currently allocated     1.15E+00 Mbytes, locked:    0 /  10
[tb_pin] Currently allocated     0.00E+00 Mbytes, locked:    0 /   0

     iteration # 40     ecut=    45.00 Ry     beta= 0.10
     Davidson diagonalization with overlap

---- Real-time Memory Report at c_bands before calling an iterative solver
          1856 MiB given to the printing process from OS
           947 MiB allocation reported by mallinfo(arena+hblkhd)
         57994 MiB available memory on the node where the printing process lives
     GPU memory used/free/total (MiB): 922 / 15358 / 16280
------------------
     ethr =  1.73E-08,  avg # of iterations =  6.3

     total cpu time spent up to now is      233.2 secs

     total energy              =   -1224.89879870 Ry
     estimated scf accuracy    <       0.00001183 Ry

     total magnetization       =     1.48 Bohr mag/cell
     absolute magnetization    =     2.28 Bohr mag/cell
[tb_dev] Currently allocated     1.15E+00 Mbytes, locked:    0 /  10
[tb_pin] Currently allocated     0.00E+00 Mbytes, locked:    0 /   0

     iteration # 41     ecut=    45.00 Ry     beta= 0.10
     Davidson diagonalization with overlap

---- Real-time Memory Report at c_bands before calling an iterative solver
          1859 MiB given to the printing process from OS
           949 MiB allocation reported by mallinfo(arena+hblkhd)
         57987 MiB available memory on the node where the printing process lives
     GPU memory used/free/total (MiB): 922 / 15358 / 16280
------------------
     ethr =  1.73E-08,  avg # of iterations =  3.8

     total cpu time spent up to now is      239.1 secs

     total energy              =   -1224.89789702 Ry
     estimated scf accuracy    <       0.00001339 Ry

     total magnetization       =     1.54 Bohr mag/cell
     absolute magnetization    =     2.37 Bohr mag/cell
[tb_dev] Currently allocated     1.15E+00 Mbytes, locked:    0 /  10
[tb_pin] Currently allocated     0.00E+00 Mbytes, locked:    0 /   0

     iteration # 42     ecut=    45.00 Ry     beta= 0.10
     Davidson diagonalization with overlap

---- Real-time Memory Report at c_bands before calling an iterative solver
          1860 MiB given to the printing process from OS
           951 MiB allocation reported by mallinfo(arena+hblkhd)
         57990 MiB available memory on the node where the printing process lives
     GPU memory used/free/total (MiB): 922 / 15358 / 16280
------------------
     ethr =  1.73E-08,  avg # of iterations =  6.2

     total cpu time spent up to now is      246.3 secs

     total energy              =   -1224.89835366 Ry
     estimated scf accuracy    <       0.00003383 Ry

     total magnetization       =     1.23 Bohr mag/cell
     absolute magnetization    =     1.91 Bohr mag/cell
[tb_dev] Currently allocated     1.15E+00 Mbytes, locked:    0 /  10
[tb_pin] Currently allocated     0.00E+00 Mbytes, locked:    0 /   0

     iteration # 43     ecut=    45.00 Ry     beta= 0.10
     Davidson diagonalization with overlap

---- Real-time Memory Report at c_bands before calling an iterative solver
          1862 MiB given to the printing process from OS
           953 MiB allocation reported by mallinfo(arena+hblkhd)
         57986 MiB available memory on the node where the printing process lives
     GPU memory used/free/total (MiB): 922 / 15358 / 16280
------------------
     ethr =  1.73E-08,  avg # of iterations =  5.7

     total cpu time spent up to now is      253.2 secs

     total energy              =   -1224.89680537 Ry
     estimated scf accuracy    <       0.00001236 Ry

[...]
     ethr =  1.73E-08,  avg # of iterations =  7.3

     total cpu time spent up to now is      379.0 secs

     total energy              =   -1224.89876117 Ry
     estimated scf accuracy    <       0.00004044 Ry

     total magnetization       =     1.67 Bohr mag/cell
     absolute magnetization    =     2.59 Bohr mag/cell
[tb_dev] Currently allocated     1.15E+00 Mbytes, locked:    0 /  10
[tb_pin] Currently allocated     0.00E+00 Mbytes, locked:    0 /   0

     iteration # 65     ecut=    45.00 Ry     beta= 0.10
     Davidson diagonalization with overlap

---- Real-time Memory Report at c_bands before calling an iterative solver
          1910 MiB given to the printing process from OS
          1000 MiB allocation reported by mallinfo(arena+hblkhd)
         57941 MiB available memory on the node where the printing process lives
     GPU memory used/free/total (MiB): 922 / 15358 / 16280
------------------
     ethr =  1.73E-08,  avg # of iterations =  3.5

     total cpu time spent up to now is      383.8 secs

     total energy              =   -1224.89877427 Ry
     estimated scf accuracy    <       0.00002593 Ry

     total magnetization       =     1.64 Bohr mag/cell
     absolute magnetization    =     2.53 Bohr mag/cell
[tb_dev] Currently allocated     1.15E+00 Mbytes, locked:    0 /  10
[tb_pin] Currently allocated     0.00E+00 Mbytes, locked:    0 /   0

     iteration # 66     ecut=    45.00 Ry     beta= 0.10
     Davidson diagonalization with overlap

---- Real-time Memory Report at c_bands before calling an iterative solver
          1913 MiB given to the printing process from OS
          1002 MiB allocation reported by mallinfo(arena+hblkhd)
         57939 MiB available memory on the node where the printing process lives
     GPU memory used/free/total (MiB): 922 / 15358 / 16280
------------------
     ethr =  1.73E-08,  avg # of iterations =  1.0

     total cpu time spent up to now is      386.8 secs

     total energy              =   -1224.89878550 Ry
     estimated scf accuracy    <       0.00002918 Ry

     total magnetization       =     1.65 Bohr mag/cell
     absolute magnetization    =     2.54 Bohr mag/cell
[tb_dev] Currently allocated     1.15E+00 Mbytes, locked:    0 /  10
[tb_pin] Currently allocated     0.00E+00 Mbytes, locked:    0 /   0

     iteration # 67     ecut=    45.00 Ry     beta= 0.10
     Davidson diagonalization with overlap

---- Real-time Memory Report at c_bands before calling an iterative solver
          1916 MiB given to the printing process from OS
          1005 MiB allocation reported by mallinfo(arena+hblkhd)
         57935 MiB available memory on the node where the printing process lives
     GPU memory used/free/total (MiB): 922 / 15358 / 16280
------------------
     ethr =  1.73E-08,  avg # of iterations =  1.9

     total cpu time spent up to now is      390.3 secs

     total energy              =   -1224.89877284 Ry
     estimated scf accuracy    <       0.00002418 Ry

     total magnetization       =     1.63 Bohr mag/cell
     absolute magnetization    =     2.52 Bohr mag/cell
[tb_dev] Currently allocated     1.15E+00 Mbytes, locked:    0 /  10
[tb_pin] Currently allocated     0.00E+00 Mbytes, locked:    0 /   0

     iteration # 68     ecut=    45.00 Ry     beta= 0.10
     Davidson diagonalization with overlap

---- Real-time Memory Report at c_bands before calling an iterative solver
          1918 MiB given to the printing process from OS
          1007 MiB allocation reported by mallinfo(arena+hblkhd)
         57931 MiB available memory on the node where the printing process lives
     GPU memory used/free/total (MiB): 922 / 15358 / 16280
------------------
     ethr =  1.73E-08,  avg # of iterations =  4.4

     total cpu time spent up to now is      395.9 secs

     total energy              =   -1224.89882993 Ry
     estimated scf accuracy    <       0.00001442 Ry

     total magnetization       =     1.57 Bohr mag/cell
     absolute magnetization    =     2.41 Bohr mag/cell
[tb_dev] Currently allocated     1.15E+00 Mbytes, locked:    0 /  10
[tb_pin] Currently allocated     0.00E+00 Mbytes, locked:    0 /   0

     iteration # 69     ecut=    45.00 Ry     beta= 0.10
     Davidson diagonalization with overlap

---- Real-time Memory Report at c_bands before calling an iterative solver
          1920 MiB given to the printing process from OS
          1009 MiB allocation reported by mallinfo(arena+hblkhd)
         57931 MiB available memory on the node where the printing process lives
     GPU memory used/free/total (MiB): 922 / 15358 / 16280
------------------
     ethr =  1.73E-08,  avg # of iterations =  1.0

     total cpu time spent up to now is      398.9 secs

     total energy              =   -1224.89883426 Ry
     estimated scf accuracy    <       0.00001541 Ry

     total magnetization       =     1.57 Bohr mag/cell
     absolute magnetization    =     2.42 Bohr mag/cell
[tb_dev] Currently allocated     1.15E+00 Mbytes, locked:    0 /  10
[tb_pin] Currently allocated     0.00E+00 Mbytes, locked:    0 /   0

     iteration # 70     ecut=    45.00 Ry     beta= 0.10
     Davidson diagonalization with overlap

---- Real-time Memory Report at c_bands before calling an iterative solver
          1923 MiB given to the printing process from OS
          1011 MiB allocation reported by mallinfo(arena+hblkhd)
         57928 MiB available memory on the node where the printing process lives
     GPU memory used/free/total (MiB): 922 / 15358 / 16280
------------------
     ethr =  1.73E-08,  avg # of iterations =  1.0

     total cpu time spent up to now is      401.9 secs

     total energy              =   -1224.89884044 Ry
     estimated scf accuracy    <       0.00001453 Ry

     total magnetization       =     1.57 Bohr mag/cell
     absolute magnetization    =     2.41 Bohr mag/cell
[tb_dev] Currently allocated     1.15E+00 Mbytes, locked:    0 /  10
[tb_pin] Currently allocated     0.00E+00 Mbytes, locked:    0 /   0

     iteration # 71     ecut=    45.00 Ry     beta= 0.10
     Davidson diagonalization with overlap

---- Real-time Memory Report at c_bands before calling an iterative solver
          1924 MiB given to the printing process from OS
          1013 MiB allocation reported by mallinfo(arena+hblkhd)
         57926 MiB available memory on the node where the printing process lives
     GPU memory used/free/total (MiB): 922 / 15358 / 16280
------------------
     ethr =  1.73E-08,  avg # of iterations =  1.9

     total cpu time spent up to now is      405.4 secs

     total energy              =   -1224.89827756 Ry
     estimated scf accuracy    <       0.00001332 Ry

     total magnetization       =     1.55 Bohr mag/cell
     absolute magnetization    =     2.39 Bohr mag/cell
[tb_dev] Currently allocated     1.15E+00 Mbytes, locked:    0 /  10
[tb_pin] Currently allocated     0.00E+00 Mbytes, locked:    0 /   0

     iteration # 72     ecut=    45.00 Ry     beta= 0.10
     Davidson diagonalization with overlap

---- Real-time Memory Report at c_bands before calling an iterative solver
          1926 MiB given to the printing process from OS
          1016 MiB allocation reported by mallinfo(arena+hblkhd)
         57922 MiB available memory on the node where the printing process lives
     GPU memory used/free/total (MiB): 922 / 15358 / 16280
------------------
     ethr =  1.73E-08,  avg # of iterations =  5.7

     total cpu time spent up to now is      412.2 secs

     total energy              =   -1224.89743067 Ry
     estimated scf accuracy    <       0.00006447 Ry

     total magnetization       =     1.71 Bohr mag/cell
     absolute magnetization    =     2.65 Bohr mag/cell
[tb_dev] Currently allocated     1.15E+00 Mbytes, locked:    0 /  10
[tb_pin] Currently allocated     0.00E+00 Mbytes, locked:    0 /   0

     iteration # 73     ecut=    45.00 Ry     beta= 0.10
     Davidson diagonalization with overlap

---- Real-time Memory Report at c_bands before calling an iterative solver
          1929 MiB given to the printing process from OS
          1018 MiB allocation reported by mallinfo(arena+hblkhd)
         57918 MiB available memory on the node where the printing process lives
     GPU memory used/free/total (MiB): 922 / 15358 / 16280
------------------
     ethr =  1.73E-08,  avg # of iterations =  6.4

     total cpu time spent up to now is      419.9 secs

     total energy              =   -1224.89881629 Ry
     estimated scf accuracy    <       0.00001557 Ry

     total magnetization       =     1.38 Bohr mag/cell
     absolute magnetization    =     2.13 Bohr mag/cell
[tb_dev] Currently allocated     1.15E+00 Mbytes, locked:    0 /  10
[tb_pin] Currently allocated     0.00E+00 Mbytes, locked:    0 /   0

     iteration # 74     ecut=    45.00 Ry     beta= 0.10
     Davidson diagonalization with overlap

---- Real-time Memory Report at c_bands before calling an iterative solver
          1931 MiB given to the printing process from OS
          1020 MiB allocation reported by mallinfo(arena+hblkhd)
         57921 MiB available memory on the node where the printing process lives
     GPU memory used/free/total (MiB): 922 / 15358 / 16280
------------------
     ethr =  1.73E-08,  avg # of iterations =  5.3

     total cpu time spent up to now is      426.3 secs

     total energy              =   -1224.89753083 Ry
     estimated scf accuracy    <       0.00003134 Ry

     total magnetization       =     1.24 Bohr mag/cell
     absolute magnetization    =     1.93 Bohr mag/cell
[tb_dev] Currently allocated     1.15E+00 Mbytes, locked:    0 /  10
[tb_pin] Currently allocated     0.00E+00 Mbytes, locked:    0 /   0

     iteration # 75     ecut=    45.00 Ry     beta= 0.10
     Davidson diagonalization with overlap

---- Real-time Memory Report at c_bands before calling an iterative solver
          1932 MiB given to the printing process from OS
          1022 MiB allocation reported by mallinfo(arena+hblkhd)
         57916 MiB available memory on the node where the printing process lives
     GPU memory used/free/total (MiB): 922 / 15358 / 16280
------------------
     ethr =  1.73E-08,  avg # of iterations =  6.3

     total cpu time spent up to now is      434.0 secs

     total energy              =   -1224.89879090 Ry
     estimated scf accuracy    <       0.00001478 Ry

     total magnetization       =     1.57 Bohr mag/cell
     absolute magnetization    =     2.42 Bohr mag/cell
[tb_dev] Currently allocated     1.15E+00 Mbytes, locked:    0 /  10
[tb_pin] Currently allocated     0.00E+00 Mbytes, locked:    0 /   0

     iteration # 76     ecut=    45.00 Ry     beta= 0.10
     Davidson diagonalization with overlap

---- Real-time Memory Report at c_bands before calling an iterative solver
          1935 MiB given to the printing process from OS
          1025 MiB allocation reported by mallinfo(arena+hblkhd)
         57916 MiB available memory on the node where the printing process lives
     GPU memory used/free/total (MiB): 922 / 15358 / 16280
------------------
     ethr =  1.73E-08,  avg # of iterations =  3.6

     total cpu time spent up to now is      438.9 secs

     total energy              =   -1224.89862771 Ry
     estimated scf accuracy    <       0.00001944 Ry

     total magnetization       =     1.60 Bohr mag/cell
     absolute magnetization    =     2.47 Bohr mag/cell
[tb_dev] Currently allocated     1.15E+00 Mbytes, locked:    0 /  10
[tb_pin] Currently allocated     0.00E+00 Mbytes, locked:    0 /   0

     iteration # 77     ecut=    45.00 Ry     beta= 0.10
     Davidson diagonalization with overlap

---- Real-time Memory Report at c_bands before calling an iterative solver
          1938 MiB given to the printing process from OS
          1027 MiB allocation reported by mallinfo(arena+hblkhd)
         57914 MiB available memory on the node where the printing process lives
     GPU memory used/free/total (MiB): 922 / 15358 / 16280
------------------
     ethr =  1.73E-08,  avg # of iterations =  4.8

     total cpu time spent up to now is      444.9 secs

     total energy              =   -1224.89873339 Ry
     estimated scf accuracy    <       0.00004540 Ry

     total magnetization       =     1.68 Bohr mag/cell
     absolute magnetization    =     2.60 Bohr mag/cell
[tb_dev] Currently allocated     1.15E+00 Mbytes, locked:    0 /  10
[tb_pin] Currently allocated     0.00E+00 Mbytes, locked:    0 /   0

     iteration # 78     ecut=    45.00 Ry     beta= 0.10
     Davidson diagonalization with overlap

---- Real-time Memory Report at c_bands before calling an iterative solver
          1940 MiB given to the printing process from OS
          1030 MiB allocation reported by mallinfo(arena+hblkhd)
         57911 MiB available memory on the node where the printing process lives
     GPU memory used/free/total (MiB): 922 / 15358 / 16280
------------------
     ethr =  1.73E-08,  avg # of iterations =  1.0

     total cpu time spent up to now is      448.0 secs

     total energy              =   -1224.89874848 Ry
     estimated scf accuracy    <       0.00004596 Ry

     total magnetization       =     1.68 Bohr mag/cell
     absolute magnetization    =     2.60 Bohr mag/cell
[tb_dev] Currently allocated     1.15E+00 Mbytes, locked:    0 /  10
[tb_pin] Currently allocated     0.00E+00 Mbytes, locked:    0 /   0

     iteration # 79     ecut=    45.00 Ry     beta= 0.10
     Davidson diagonalization with overlap

---- Real-time Memory Report at c_bands before calling an iterative solver
          1942 MiB given to the printing process from OS
          1032 MiB allocation reported by mallinfo(arena+hblkhd)
         57909 MiB available memory on the node where the printing process lives
     GPU memory used/free/total (MiB): 922 / 15358 / 16280
------------------
     ethr =  1.73E-08,  avg # of iterations =  2.0

     total cpu time spent up to now is      451.5 secs

     total energy              =   -1224.89874414 Ry
     estimated scf accuracy    <       0.00003651 Ry

     total magnetization       =     1.67 Bohr mag/cell
     absolute magnetization    =     2.58 Bohr mag/cell
[tb_dev] Currently allocated     1.15E+00 Mbytes, locked:    0 /  10
[tb_pin] Currently allocated     0.00E+00 Mbytes, locked:    0 /   0

     iteration # 80     ecut=    45.00 Ry     beta= 0.10
     Davidson diagonalization with overlap

---- Real-time Memory Report at c_bands before calling an iterative solver
          1944 MiB given to the printing process from OS
          1034 MiB allocation reported by mallinfo(arena+hblkhd)
         57906 MiB available memory on the node where the printing process lives
     GPU memory used/free/total (MiB): 922 / 15358 / 16280
------------------
     ethr =  1.73E-08,  avg # of iterations =  4.5

     total cpu time spent up to now is      457.2 secs

     total energy              =   -1224.89881796 Ry
     estimated scf accuracy    <       0.00001871 Ry

     total magnetization       =     1.60 Bohr mag/cell
     absolute magnetization    =     2.47 Bohr mag/cell

     End of self-consistent calculation

     convergence NOT achieved after  80 iterations: stopping

     Writing config to output data dir ./out/aiida.save/
 
     init_run     :     18.52s CPU      2.89s WALL (       1 calls)
     electrons    :    833.40s CPU    453.69s WALL (       1 calls)

     Called by init_run:
     wfcinit      :      0.39s CPU      0.39s WALL (       1 calls)
                                        0.39s GPU  (       1 calls)
     potinit      :      7.65s CPU      0.76s WALL (       1 calls)
     hinit0       :      7.00s CPU      1.16s WALL (       1 calls)

     Called by electrons:
     c_bands      :    466.07s CPU    388.55s WALL (      81 calls)
     sum_band     :     27.53s CPU     33.95s WALL (      81 calls)
     v_of_rho     :      6.60s CPU      0.61s WALL (      81 calls)
     v_h          :      0.98s CPU      0.09s WALL (      81 calls)
     v_xc         :      5.61s CPU      0.52s WALL (      81 calls)
     newd         :     15.18s CPU      1.69s WALL (      81 calls)
                                        1.69s GPU  (      81 calls)
     PAW_pot      :    309.53s CPU     28.09s WALL (      81 calls)
     mix_rho      :      7.50s CPU      0.74s WALL (      81 calls)

     Called by c_bands:
     init_us_2    :     26.82s CPU     25.18s WALL (   27216 calls)
     init_us_2:gp :     26.28s CPU     24.72s WALL (   27216 calls)
     cegterg      :    426.21s CPU    353.12s WALL (   13608 calls)

     Called by sum_band:
     sum_band:wei :      0.54s CPU      0.55s WALL (      81 calls)
                                        0.55s GPU  (      81 calls)
     sum_band:loo :     25.19s CPU     31.40s WALL (      81 calls)
                                       31.40s GPU  (      81 calls)
     sum_band:buf :      3.59s CPU      4.42s WALL (   13608 calls)
                                        4.34s GPU  (   13608 calls)
     sum_band:ini :      9.62s CPU     12.32s WALL (   13608 calls)
                                       12.24s GPU  (   13608 calls)
     sum_band:cal :      0.40s CPU      0.97s WALL (   13608 calls)
                                        0.89s GPU  (   13608 calls)
     sum_band:bec :      1.76s CPU      2.27s WALL (   13608 calls)
                                        2.18s GPU  (   13608 calls)
     addusdens    :      1.31s CPU      1.48s WALL (      81 calls)
                                        1.48s GPU  (      81 calls)
     addusd:skk   :      0.01s CPU      0.01s WALL (     162 calls)
                                        0.01s GPU  (     162 calls)

     Called by *egterg:
     cdiaghg      :    254.71s CPU    217.52s WALL (   70759 calls)
                                      217.06s GPU  (   70759 calls)
     cegterg:over :      8.78s CPU      7.13s WALL (   57487 calls)
     cegterg:upda :     23.25s CPU     18.82s WALL (   57487 calls)
     cegterg:last :      4.47s CPU      3.61s WALL (   35565 calls)
     h_psi        :    100.15s CPU     79.80s WALL (   71095 calls)
                                       79.42s GPU  (   71095 calls)
     s_psi        :      7.67s CPU      8.66s WALL (   71095 calls)
                                        8.16s GPU  (   71095 calls)
     g_psi        :      0.53s CPU      1.21s WALL (   57487 calls)
                                        0.85s GPU  (   57487 calls)

     Called by h_psi:
     h_psi:calbec :      3.05s CPU      5.47s WALL (   71095 calls)
                                        5.05s GPU  (   71095 calls)
     vloc_psi     :     75.92s CPU     60.66s WALL (   71095 calls)
                                       60.24s GPU  (   71095 calls)
     add_vuspsi   :      9.58s CPU      9.32s WALL (   71095 calls)
                                        8.91s GPU  (   71095 calls)

     General routines
     calbec       :      2.62s CPU      2.20s WALL (   84703 calls)
     fft          :      2.39s CPU      0.27s WALL (    2025 calls)
                                        0.23s GPU  (    1863 calls)
     ffts         :      0.03s CPU      0.01s WALL (     324 calls)
                                        0.01s GPU  (     162 calls)
     fftw         :      7.87s CPU     29.77s WALL (  318020 calls)
                                       28.03s GPU  (  318020 calls)
     interpolate  :      0.98s CPU      0.09s WALL (     162 calls)
     davcio       :      0.99s CPU      0.33s WALL (     354 calls)
 
     Parallel routines

     PAW routines
     PAW_pot      :    309.53s CPU     28.09s WALL (      81 calls)
     PAW_symme    :      0.71s CPU      0.12s WALL (     161 calls)
 
     PWSCF        :  14m15.71s CPU   7m37.54s WALL

 
   This run was terminated on:  18:26:11  23Oct2023            

=------------------------------------------------------------------------------=
   JOB DONE.
=------------------------------------------------------------------------------=
