
     Program PWSCF v.7.2 starts on 22Oct2023 at 22: 4:16 

     This program is part of the open-source Quantum ESPRESSO suite
     for quantum simulation of materials; please cite
         "P. Giannozzi et al., J. Phys.:Condens. Matter 21 395502 (2009);
         "P. Giannozzi et al., J. Phys.:Condens. Matter 29 465901 (2017);
         "P. Giannozzi et al., J. Chem. Phys. 152 154105 (2020);
          URL http://www.quantum-espresso.org", 
     in publications or presentations arising from this work. More details at
     http://www.quantum-espresso.org/quote

     Parallel version (MPI & OpenMP), running on      12 processor cores
     Number of MPI processes:                 1
     Threads/MPI process:                    12

     MPI processes distributed on     1 nodes
     38636 MiB available memory on the printing compute node when the environment starts
 
     Reading input from aiida.in

     Current dimensions of program PWSCF are:
     Max number of different atomic species (ntypx) = 10
     Max number of k-points (npk) =  40000
     Max angular momentum in pseudopotentials (lmaxx) =  4
     file Ga.pbesol-dn-kjpaw_psl.1.0.0.UPF: wavefunction(s)  4S renormalized
     Message from routine setup:
     using ibrav=0 with symmetry is DISCOURAGED, use correct ibrav instead
 
     Subspace diagonalization in iterative solution of the eigenvalue problem:
     a serial algorithm will be used

 
     G-vector sticks info
     --------------------
     sticks:   dense  smooth     PW     G-vecs:    dense   smooth      PW
     Sum        3253    1159    349               122589    26301    4279
 
     Using Slab Decomposition
 


     bravais-lattice index     =            0
     lattice parameter (alat)  =       7.7769  a.u.
     unit-cell volume          =     332.5872 (a.u.)^3
     number of atoms/cell      =            4
     number of atomic types    =            2
     number of electrons       =        58.00
     number of Kohn-Sham states=           35
     kinetic-energy cutoff     =      70.0000  Ry
     charge density cutoff     =     780.0000  Ry
     scf convergence threshold =      8.0E-10
     mixing beta               =       0.4000
     number of iterations used =            8  plain     mixing
     Exchange-correlation= SLA  PW   PSX  PSC
                           (   1   4  10   8   0   0   0)

     GPU acceleration is ACTIVE.


     GPU used by master process:

        Device Number: 0
        Device name: Tesla P100-PCIE-16GB
        Compute capability : 60
        Ratio of single to double precision performance  : 2
        Memory Clock Rate (KHz): 715000
        Memory Bus Width (bits): 4096
        Peak Memory Bandwidth (GB/s): 732.16

     celldm(1)=   7.776906  celldm(2)=   0.000000  celldm(3)=   0.000000
     celldm(4)=   0.000000  celldm(5)=   0.000000  celldm(6)=   0.000000

     crystal axes: (cart. coord. in units of alat)
               a(1) = (   0.000000   0.707107   0.707107 )  
               a(2) = (   0.707107   0.000000   0.707107 )  
               a(3) = (   0.707107   0.707107   0.000000 )  

     reciprocal axes: (cart. coord. in units 2 pi/alat)
               b(1) = ( -0.707107  0.707107  0.707107 )  
               b(2) = (  0.707107 -0.707107  0.707107 )  
               b(3) = (  0.707107  0.707107 -0.707107 )  


     PseudoPot. # 1 for Ga read from file:
     ./pseudo/Ga.pbesol-dn-kjpaw_psl.1.0.0.UPF
     MD5 check sum: 2a7819223b42fad6ccd7f29fc9cbee49
     Pseudo is Projector augmented-wave + core cor, Zval = 13.0
     Generated using "atomic" code by A. Dal Corso  v.6.0 svn rev. 13079
     Shape of augmentation charge: PSQ
     Using radial grid of 1205 points,  6 beta functions with: 
                l(1) =   0
                l(2) =   0
                l(3) =   1
                l(4) =   1
                l(5) =   2
                l(6) =   2
     Q(r) pseudized with 0 coefficients 


     PseudoPot. # 2 for Mn read from file:
     ./pseudo/mn_pbesol_v1.5.uspp.F.UPF
     MD5 check sum: 0716d5f563e6e95a34f9080f4c78c109
     Pseudo is Ultrasoft + core correction, Zval = 15.0
     Generated by new atomic code, or converted to UPF format
     Using radial grid of  859 points,  6 beta functions with: 
                l(1) =   0
                l(2) =   0
                l(3) =   1
                l(4) =   1
                l(5) =   2
                l(6) =   2
     Q(r) pseudized with  8 coefficients,  rinner =    0.950   0.950   0.950
                                                       0.950   0.950

     atomic species   valence    mass     pseudopotential
        Ga            13.00    69.72300     Ga( 1.00)
        Mn            15.00    54.93805     Mn( 1.00)

     Starting magnetic structure 
     atomic species   magnetization
        Ga           0.100
        Mn           0.333

     48 Sym. Ops., with inversion, found


                                    s                        frac. trans.

      isym =  1     identity                                     

 cryst.   s( 1) = (     1          0          0      )
                  (     0          1          0      )
                  (     0          0          1      )

 cart.    s( 1) = (  1.0000000 -0.0000000  0.0000000 )
                  ( -0.0000000  1.0000000  0.0000000 )
                  ( -0.0000000  0.0000000  1.0000000 )


      isym =  2     180 deg rotation - cart. axis [0,0,1]        

 cryst.   s( 2) = (     0          1         -1      )
                  (     1          0         -1      )
                  (     0          0         -1      )

 cart.    s( 2) = ( -1.0000000  0.0000000  0.0000000 )
                  (  0.0000000 -1.0000000  0.0000000 )
                  (  0.0000000 -0.0000000  1.0000000 )


      isym =  3     180 deg rotation - cart. axis [0,1,0]        

 cryst.   s( 3) = (     0         -1          1      )
                  (     0         -1          0      )
                  (     1         -1          0      )

 cart.    s( 3) = ( -1.0000000 -0.0000000 -0.0000000 )
                  (  0.0000000  1.0000000 -0.0000000 )
                  (  0.0000000  0.0000000 -1.0000000 )


      isym =  4     180 deg rotation - cart. axis [1,0,0]        

 cryst.   s( 4) = (    -1          0          0      )
                  (    -1          0          1      )
                  (    -1          1          0      )

 cart.    s( 4) = (  1.0000000  0.0000000 -0.0000000 )
                  ( -0.0000000 -1.0000000 -0.0000000 )
                  ( -0.0000000 -0.0000000 -1.0000000 )


      isym =  5     180 deg rotation - cart. axis [1,1,0]        

 cryst.   s( 5) = (    -1          0          1      )
                  (     0         -1          1      )
                  (     0          0          1      )

 cart.    s( 5) = ( -0.0000000  1.0000000 -0.0000000 )
                  (  1.0000000 -0.0000000 -0.0000000 )
                  (  0.0000000 -0.0000000 -1.0000000 )


      isym =  6     180 deg rotation - cart. axis [1,-1,0]       

 cryst.   s( 6) = (     0         -1          0      )
                  (    -1          0          0      )
                  (     0          0         -1      )

 cart.    s( 6) = (  0.0000000 -1.0000000 -0.0000000 )
                  ( -1.0000000  0.0000000 -0.0000000 )
                  ( -0.0000000  0.0000000 -1.0000000 )


      isym =  7      90 deg rotation - cart. axis [0,0,-1]       

 cryst.   s( 7) = (     0          1          0      )
                  (     0          1         -1      )
                  (    -1          1          0      )

 cart.    s( 7) = (  0.0000000  1.0000000  0.0000000 )
                  ( -1.0000000 -0.0000000  0.0000000 )
                  ( -0.0000000 -0.0000000  1.0000000 )


      isym =  8      90 deg rotation - cart. axis [0,0,1]        

 cryst.   s( 8) = (     1          0         -1      )
                  (     1          0          0      )
                  (     1         -1          0      )

 cart.    s( 8) = ( -0.0000000 -1.0000000  0.0000000 )
                  (  1.0000000  0.0000000  0.0000000 )
                  (  0.0000000  0.0000000  1.0000000 )


      isym =  9     180 deg rotation - cart. axis [1,0,1]        

 cryst.   s( 9) = (    -1          1          0      )
                  (     0          1          0      )
                  (     0          1         -1      )

 cart.    s( 9) = (  0.0000000  0.0000000  1.0000000 )
                  (  0.0000000 -1.0000000 -0.0000000 )
                  (  1.0000000 -0.0000000 -0.0000000 )


      isym = 10     180 deg rotation - cart. axis [-1,0,1]       

 cryst.   s(10) = (     0          0         -1      )
                  (     0         -1          0      )
                  (    -1          0          0      )

 cart.    s(10) = ( -0.0000000  0.0000000 -1.0000000 )
                  ( -0.0000000 -1.0000000  0.0000000 )
                  ( -1.0000000 -0.0000000  0.0000000 )


      isym = 11      90 deg rotation - cart. axis [0,1,0]        

 cryst.   s(11) = (     0          0          1      )
                  (    -1          0          1      )
                  (     0         -1          1      )

 cart.    s(11) = ( -0.0000000 -0.0000000  1.0000000 )
                  ( -0.0000000  1.0000000 -0.0000000 )
                  ( -1.0000000  0.0000000 -0.0000000 )


      isym = 12      90 deg rotation - cart. axis [0,-1,0]       

 cryst.   s(12) = (     1         -1          0      )
                  (     1          0         -1      )
                  (     1          0          0      )

 cart.    s(12) = (  0.0000000 -0.0000000 -1.0000000 )
                  (  0.0000000  1.0000000  0.0000000 )
                  (  1.0000000  0.0000000  0.0000000 )


      isym = 13     180 deg rotation - cart. axis [0,1,1]        

 cryst.   s(13) = (     1          0          0      )
                  (     1         -1          0      )
                  (     1          0         -1      )

 cart.    s(13) = ( -1.0000000  0.0000000 -0.0000000 )
                  (  0.0000000  0.0000000  1.0000000 )
                  (  0.0000000  1.0000000  0.0000000 )


      isym = 14     180 deg rotation - cart. axis [0,1,-1]       

 cryst.   s(14) = (    -1          0          0      )
                  (     0          0         -1      )
                  (     0         -1          0      )

 cart.    s(14) = ( -1.0000000 -0.0000000  0.0000000 )
                  (  0.0000000 -0.0000000 -1.0000000 )
                  (  0.0000000 -1.0000000 -0.0000000 )


      isym = 15      90 deg rotation - cart. axis [-1,0,0]       

 cryst.   s(15) = (     0         -1          1      )
                  (     0          0          1      )
                  (    -1          0          1      )

 cart.    s(15) = (  1.0000000 -0.0000000 -0.0000000 )
                  ( -0.0000000 -0.0000000  1.0000000 )
                  ( -0.0000000 -1.0000000  0.0000000 )


      isym = 16      90 deg rotation - cart. axis [1,0,0]        

 cryst.   s(16) = (     0          1         -1      )
                  (    -1          1          0      )
                  (     0          1          0      )

 cart.    s(16) = (  1.0000000  0.0000000  0.0000000 )
                  ( -0.0000000  0.0000000 -1.0000000 )
                  ( -0.0000000  1.0000000 -0.0000000 )


      isym = 17     120 deg rotation - cart. axis [-1,-1,-1]     

 cryst.   s(17) = (     0          0          1      )
                  (     1          0          0      )
                  (     0          1          0      )

 cart.    s(17) = (  0.0000000  1.0000000 -0.0000000 )
                  (  0.0000000 -0.0000000  1.0000000 )
                  (  1.0000000 -0.0000000  0.0000000 )


      isym = 18     120 deg rotation - cart. axis [-1,1,1]       

 cryst.   s(18) = (     1         -1          0      )
                  (     0         -1          1      )
                  (     0         -1          0      )

 cart.    s(18) = ( -0.0000000 -1.0000000 -0.0000000 )
                  ( -0.0000000  0.0000000  1.0000000 )
                  ( -1.0000000  0.0000000  0.0000000 )


      isym = 19     120 deg rotation - cart. axis [1,1,-1]       

 cryst.   s(19) = (    -1          1          0      )
                  (    -1          0          0      )
                  (    -1          0          1      )

 cart.    s(19) = ( -0.0000000  1.0000000  0.0000000 )
                  ( -0.0000000 -0.0000000 -1.0000000 )
                  ( -1.0000000 -0.0000000 -0.0000000 )


      isym = 20     120 deg rotation - cart. axis [1,-1,1]       

 cryst.   s(20) = (     0          0         -1      )
                  (     0          1         -1      )
                  (     1          0         -1      )

 cart.    s(20) = (  0.0000000 -1.0000000  0.0000000 )
                  (  0.0000000  0.0000000 -1.0000000 )
                  (  1.0000000  0.0000000 -0.0000000 )


      isym = 21     120 deg rotation - cart. axis [1,1,1]        

 cryst.   s(21) = (     0          1          0      )
                  (     0          0          1      )
                  (     1          0          0      )

 cart.    s(21) = ( -0.0000000  0.0000000  1.0000000 )
                  (  1.0000000  0.0000000 -0.0000000 )
                  (  0.0000000  1.0000000 -0.0000000 )


      isym = 22     120 deg rotation - cart. axis [-1,1,-1]      

 cryst.   s(22) = (    -1          0          1      )
                  (    -1          1          0      )
                  (    -1          0          0      )

 cart.    s(22) = (  0.0000000 -0.0000000  1.0000000 )
                  ( -1.0000000 -0.0000000 -0.0000000 )
                  ( -0.0000000 -1.0000000 -0.0000000 )


      isym = 23     120 deg rotation - cart. axis [1,-1,-1]      

 cryst.   s(23) = (     1          0         -1      )
                  (     0          0         -1      )
                  (     0          1         -1      )

 cart.    s(23) = (  0.0000000  0.0000000 -1.0000000 )
                  ( -1.0000000  0.0000000  0.0000000 )
                  ( -0.0000000  1.0000000  0.0000000 )


      isym = 24     120 deg rotation - cart. axis [-1,-1,1]      

 cryst.   s(24) = (     0         -1          0      )
                  (     1         -1          0      )
                  (     0         -1          1      )

 cart.    s(24) = ( -0.0000000 -0.0000000 -1.0000000 )
                  (  1.0000000 -0.0000000  0.0000000 )
                  (  0.0000000 -1.0000000  0.0000000 )


      isym = 25     inversion                                    

 cryst.   s(25) = (    -1          0          0      )
                  (     0         -1          0      )
                  (     0          0         -1      )

 cart.    s(25) = ( -1.0000000  0.0000000 -0.0000000 )
                  (  0.0000000 -1.0000000 -0.0000000 )
                  (  0.0000000 -0.0000000 -1.0000000 )


      isym = 26     inv. 180 deg rotation - cart. axis [0,0,1]   

 cryst.   s(26) = (     0         -1          1      )
                  (    -1          0          1      )
                  (     0          0          1      )

 cart.    s(26) = (  1.0000000 -0.0000000 -0.0000000 )
                  ( -0.0000000  1.0000000 -0.0000000 )
                  ( -0.0000000  0.0000000 -1.0000000 )


      isym = 27     inv. 180 deg rotation - cart. axis [0,1,0]   

 cryst.   s(27) = (     0          1         -1      )
                  (     0          1          0      )
                  (    -1          1          0      )

 cart.    s(27) = (  1.0000000  0.0000000  0.0000000 )
                  ( -0.0000000 -1.0000000  0.0000000 )
                  ( -0.0000000 -0.0000000  1.0000000 )


      isym = 28     inv. 180 deg rotation - cart. axis [1,0,0]   

 cryst.   s(28) = (     1          0          0      )
                  (     1          0         -1      )
                  (     1         -1          0      )

 cart.    s(28) = ( -1.0000000 -0.0000000  0.0000000 )
                  (  0.0000000  1.0000000  0.0000000 )
                  (  0.0000000  0.0000000  1.0000000 )


      isym = 29     inv. 180 deg rotation - cart. axis [1,1,0]   

 cryst.   s(29) = (     1          0         -1      )
                  (     0          1         -1      )
                  (     0          0         -1      )

 cart.    s(29) = (  0.0000000 -1.0000000  0.0000000 )
                  ( -1.0000000  0.0000000  0.0000000 )
                  ( -0.0000000  0.0000000  1.0000000 )


      isym = 30     inv. 180 deg rotation - cart. axis [1,-1,0]  

 cryst.   s(30) = (     0          1          0      )
                  (     1          0          0      )
                  (     0          0          1      )

 cart.    s(30) = ( -0.0000000  1.0000000  0.0000000 )
                  (  1.0000000 -0.0000000  0.0000000 )
                  (  0.0000000 -0.0000000  1.0000000 )


      isym = 31     inv.  90 deg rotation - cart. axis [0,0,-1]  

 cryst.   s(31) = (     0         -1          0      )
                  (     0         -1          1      )
                  (     1         -1          0      )

 cart.    s(31) = ( -0.0000000 -1.0000000 -0.0000000 )
                  (  1.0000000  0.0000000 -0.0000000 )
                  (  0.0000000  0.0000000 -1.0000000 )


      isym = 32     inv.  90 deg rotation - cart. axis [0,0,1]   

 cryst.   s(32) = (    -1          0          1      )
                  (    -1          0          0      )
                  (    -1          1          0      )

 cart.    s(32) = (  0.0000000  1.0000000 -0.0000000 )
                  ( -1.0000000 -0.0000000 -0.0000000 )
                  ( -0.0000000 -0.0000000 -1.0000000 )


      isym = 33     inv. 180 deg rotation - cart. axis [1,0,1]   

 cryst.   s(33) = (     1         -1          0      )
                  (     0         -1          0      )
                  (     0         -1          1      )

 cart.    s(33) = ( -0.0000000 -0.0000000 -1.0000000 )
                  ( -0.0000000  1.0000000  0.0000000 )
                  ( -1.0000000  0.0000000  0.0000000 )


      isym = 34     inv. 180 deg rotation - cart. axis [-1,0,1]  

 cryst.   s(34) = (     0          0          1      )
                  (     0          1          0      )
                  (     1          0          0      )

 cart.    s(34) = (  0.0000000 -0.0000000  1.0000000 )
                  (  0.0000000  1.0000000 -0.0000000 )
                  (  1.0000000  0.0000000 -0.0000000 )


      isym = 35     inv.  90 deg rotation - cart. axis [0,1,0]   

 cryst.   s(35) = (     0          0         -1      )
                  (     1          0         -1      )
                  (     0          1         -1      )

 cart.    s(35) = (  0.0000000  0.0000000 -1.0000000 )
                  (  0.0000000 -1.0000000  0.0000000 )
                  (  1.0000000 -0.0000000  0.0000000 )


      isym = 36     inv.  90 deg rotation - cart. axis [0,-1,0]  

 cryst.   s(36) = (    -1          1          0      )
                  (    -1          0          1      )
                  (    -1          0          0      )

 cart.    s(36) = ( -0.0000000  0.0000000  1.0000000 )
                  ( -0.0000000 -1.0000000 -0.0000000 )
                  ( -1.0000000 -0.0000000 -0.0000000 )


      isym = 37     inv. 180 deg rotation - cart. axis [0,1,1]   

 cryst.   s(37) = (    -1          0          0      )
                  (    -1          1          0      )
                  (    -1          0          1      )

 cart.    s(37) = (  1.0000000 -0.0000000  0.0000000 )
                  ( -0.0000000 -0.0000000 -1.0000000 )
                  ( -0.0000000 -1.0000000 -0.0000000 )


      isym = 38     inv. 180 deg rotation - cart. axis [0,1,-1]  

 cryst.   s(38) = (     1          0          0      )
                  (     0          0          1      )
                  (     0          1          0      )

 cart.    s(38) = (  1.0000000  0.0000000 -0.0000000 )
                  ( -0.0000000  0.0000000  1.0000000 )
                  ( -0.0000000  1.0000000  0.0000000 )


      isym = 39     inv.  90 deg rotation - cart. axis [-1,0,0]  

 cryst.   s(39) = (     0          1         -1      )
                  (     0          0         -1      )
                  (     1          0         -1      )

 cart.    s(39) = ( -1.0000000  0.0000000  0.0000000 )
                  (  0.0000000  0.0000000 -1.0000000 )
                  (  0.0000000  1.0000000 -0.0000000 )


      isym = 40     inv.  90 deg rotation - cart. axis [1,0,0]   

 cryst.   s(40) = (     0         -1          1      )
                  (     1         -1          0      )
                  (     0         -1          0      )

 cart.    s(40) = ( -1.0000000 -0.0000000 -0.0000000 )
                  (  0.0000000 -0.0000000  1.0000000 )
                  (  0.0000000 -1.0000000  0.0000000 )


      isym = 41     inv. 120 deg rotation - cart. axis [-1,-1,-1]

 cryst.   s(41) = (     0          0         -1      )
                  (    -1          0          0      )
                  (     0         -1          0      )

 cart.    s(41) = ( -0.0000000 -1.0000000  0.0000000 )
                  ( -0.0000000  0.0000000 -1.0000000 )
                  ( -1.0000000  0.0000000 -0.0000000 )


      isym = 42     inv. 120 deg rotation - cart. axis [-1,1,1]  

 cryst.   s(42) = (    -1          1          0      )
                  (     0          1         -1      )
                  (     0          1          0      )

 cart.    s(42) = (  0.0000000  1.0000000  0.0000000 )
                  (  0.0000000 -0.0000000 -1.0000000 )
                  (  1.0000000 -0.0000000 -0.0000000 )


      isym = 43     inv. 120 deg rotation - cart. axis [1,1,-1]  

 cryst.   s(43) = (     1         -1          0      )
                  (     1          0          0      )
                  (     1          0         -1      )

 cart.    s(43) = (  0.0000000 -1.0000000 -0.0000000 )
                  (  0.0000000  0.0000000  1.0000000 )
                  (  1.0000000  0.0000000  0.0000000 )


      isym = 44     inv. 120 deg rotation - cart. axis [1,-1,1]  

 cryst.   s(44) = (     0          0          1      )
                  (     0         -1          1      )
                  (    -1          0          1      )

 cart.    s(44) = ( -0.0000000  1.0000000 -0.0000000 )
                  ( -0.0000000 -0.0000000  1.0000000 )
                  ( -1.0000000 -0.0000000  0.0000000 )


      isym = 45     inv. 120 deg rotation - cart. axis [1,1,1]   

 cryst.   s(45) = (     0         -1          0      )
                  (     0          0         -1      )
                  (    -1          0          0      )

 cart.    s(45) = (  0.0000000 -0.0000000 -1.0000000 )
                  ( -1.0000000 -0.0000000  0.0000000 )
                  ( -0.0000000 -1.0000000  0.0000000 )


      isym = 46     inv. 120 deg rotation - cart. axis [-1,1,-1] 

 cryst.   s(46) = (     1          0         -1      )
                  (     1         -1          0      )
                  (     1          0          0      )

 cart.    s(46) = ( -0.0000000  0.0000000 -1.0000000 )
                  (  1.0000000  0.0000000  0.0000000 )
                  (  0.0000000  1.0000000  0.0000000 )


      isym = 47     inv. 120 deg rotation - cart. axis [1,-1,-1] 

 cryst.   s(47) = (    -1          0          1      )
                  (     0          0          1      )
                  (     0         -1          1      )

 cart.    s(47) = ( -0.0000000 -0.0000000  1.0000000 )
                  (  1.0000000 -0.0000000 -0.0000000 )
                  (  0.0000000 -1.0000000 -0.0000000 )


      isym = 48     inv. 120 deg rotation - cart. axis [-1,-1,1] 

 cryst.   s(48) = (     0          1          0      )
                  (    -1          1          0      )
                  (     0          1         -1      )

 cart.    s(48) = (  0.0000000  0.0000000  1.0000000 )
                  ( -1.0000000  0.0000000 -0.0000000 )
                  ( -0.0000000  1.0000000 -0.0000000 )


   Cartesian axes

     site n.     atom                  positions (alat units)
         1           Mn  tau(   1) = (   0.3535534   0.3535534   1.0606602  )
         2           Mn  tau(   2) = (   0.3535534   1.0606602   1.0606602  )
         3           Mn  tau(   3) = (   0.7071068   0.0000000   0.0000000  )
         4           Ga  tau(   4) = (   0.0000000   0.0000000   0.0000000  )

   Crystallographic axes

     site n.     atom                  positions (cryst. coord.)
         1           Mn  tau(   1) = (  0.7500000  0.7500000 -0.2500000  )
         2           Mn  tau(   2) = (  1.2500000  0.2500000  0.2500000  )
         3           Mn  tau(   3) = ( -0.5000000  0.5000000  0.5000000  )
         4           Ga  tau(   4) = (  0.0000000  0.0000000  0.0000000  )

     number of k points=    84  Marzari-Vanderbilt smearing, width (Ry)=  0.0100
                       cart. coord. in units 2pi/alat
        k(    1) = (   0.0000000   0.0000000   0.0000000), wk =   0.0004552
        k(    2) = (   0.0543928   0.0543928  -0.0543928), wk =   0.0036413
        k(    3) = (   0.1087857   0.1087857  -0.1087857), wk =   0.0036413
        k(    4) = (   0.1631785   0.1631785  -0.1631785), wk =   0.0036413
        k(    5) = (   0.2175713   0.2175713  -0.2175713), wk =   0.0036413
        k(    6) = (   0.2719641   0.2719641  -0.2719641), wk =   0.0036413
        k(    7) = (   0.3263570   0.3263570  -0.3263570), wk =   0.0036413
        k(    8) = (   0.1087857  -0.0000000   0.0000000), wk =   0.0027310
        k(    9) = (   0.1631785   0.0543928  -0.0543928), wk =   0.0109240
        k(   10) = (   0.2175713   0.1087857  -0.1087857), wk =   0.0109240
        k(   11) = (   0.2719641   0.1631785  -0.1631785), wk =   0.0109240
        k(   12) = (   0.3263570   0.2175713  -0.2175713), wk =   0.0109240
        k(   13) = (   0.3807498   0.2719641  -0.2719641), wk =   0.0109240
        k(   14) = (  -0.2719641  -0.3807498   0.3807498), wk =   0.0109240
        k(   15) = (  -0.2175713  -0.3263570   0.3263570), wk =   0.0109240
        k(   16) = (  -0.1631785  -0.2719641   0.2719641), wk =   0.0109240
        k(   17) = (  -0.1087857  -0.2175713   0.2175713), wk =   0.0109240
        k(   18) = (  -0.0543928  -0.1631785   0.1631785), wk =   0.0109240
        k(   19) = (   0.0000000  -0.1087857   0.1087857), wk =   0.0054620
        k(   20) = (   0.2175713  -0.0000000   0.0000000), wk =   0.0027310
        k(   21) = (   0.2719641   0.0543928  -0.0543928), wk =   0.0109240
        k(   22) = (   0.3263570   0.1087857  -0.1087857), wk =   0.0109240
        k(   23) = (   0.3807498   0.1631785  -0.1631785), wk =   0.0109240
        k(   24) = (   0.4351426   0.2175713  -0.2175713), wk =   0.0109240
        k(   25) = (  -0.2175713  -0.4351426   0.4351426), wk =   0.0109240
        k(   26) = (  -0.1631785  -0.3807498   0.3807498), wk =   0.0109240
        k(   27) = (  -0.1087857  -0.3263570   0.3263570), wk =   0.0109240
        k(   28) = (  -0.0543928  -0.2719641   0.2719641), wk =   0.0109240
        k(   29) = (   0.0000000  -0.2175713   0.2175713), wk =   0.0054620
        k(   30) = (   0.3263570  -0.0000000   0.0000000), wk =   0.0027310
        k(   31) = (   0.3807498   0.0543928  -0.0543928), wk =   0.0109240
        k(   32) = (   0.4351426   0.1087857  -0.1087857), wk =   0.0109240
        k(   33) = (   0.4895355   0.1631785  -0.1631785), wk =   0.0109240
        k(   34) = (  -0.1631785  -0.4895355   0.4895355), wk =   0.0109240
        k(   35) = (  -0.1087857  -0.4351426   0.4351426), wk =   0.0109240
        k(   36) = (  -0.0543928  -0.3807498   0.3807498), wk =   0.0109240
        k(   37) = (   0.0000000  -0.3263570   0.3263570), wk =   0.0054620
        k(   38) = (   0.4351426  -0.0000000   0.0000000), wk =   0.0027310
        k(   39) = (   0.4895355   0.0543928  -0.0543928), wk =   0.0109240
        k(   40) = (   0.5439283   0.1087857  -0.1087857), wk =   0.0109240
        k(   41) = (  -0.1087857  -0.5439283   0.5439283), wk =   0.0109240
        k(   42) = (  -0.0543928  -0.4895355   0.4895355), wk =   0.0109240
        k(   43) = (   0.0000000  -0.4351426   0.4351426), wk =   0.0054620
        k(   44) = (   0.5439283  -0.0000000   0.0000000), wk =   0.0027310
        k(   45) = (   0.5983211   0.0543928  -0.0543928), wk =   0.0109240
        k(   46) = (  -0.0543928  -0.5983211   0.5983211), wk =   0.0109240
        k(   47) = (   0.0000000  -0.5439283   0.5439283), wk =   0.0054620
        k(   48) = (   0.6527140  -0.0000000   0.0000000), wk =   0.0027310
        k(   49) = (   0.0000000  -0.6527140   0.6527140), wk =   0.0054620
        k(   50) = (   0.2175713   0.1087857   0.0000000), wk =   0.0109240
        k(   51) = (   0.2719641   0.1631785  -0.0543928), wk =   0.0218480
        k(   52) = (   0.3263570   0.2175713  -0.1087857), wk =   0.0218480
        k(   53) = (   0.3807498   0.2719641  -0.1631785), wk =   0.0218480
        k(   54) = (  -0.2719641  -0.3807498   0.4895355), wk =   0.0218480
        k(   55) = (   0.3263570   0.1087857   0.0000000), wk =   0.0109240
        k(   56) = (   0.3807498   0.1631785  -0.0543928), wk =   0.0218480
        k(   57) = (   0.4351426   0.2175713  -0.1087857), wk =   0.0218480
        k(   58) = (  -0.2175713  -0.4351426   0.5439283), wk =   0.0218480
        k(   59) = (  -0.1631785  -0.3807498   0.4895355), wk =   0.0218480
        k(   60) = (  -0.1087857  -0.3263570   0.4351426), wk =   0.0218480
        k(   61) = (  -0.0543928  -0.2719641   0.3807498), wk =   0.0218480
        k(   62) = (   0.0000000  -0.2175713   0.3263570), wk =   0.0109240
        k(   63) = (   0.4351426   0.1087857   0.0000000), wk =   0.0109240
        k(   64) = (   0.4895355   0.1631785  -0.0543928), wk =   0.0218480
        k(   65) = (  -0.1631785  -0.4895355   0.5983211), wk =   0.0218480
        k(   66) = (  -0.1087857  -0.4351426   0.5439283), wk =   0.0218480
        k(   67) = (  -0.0543928  -0.3807498   0.4895355), wk =   0.0218480
        k(   68) = (   0.0000000  -0.3263570   0.4351426), wk =   0.0109240
        k(   69) = (   0.5439283   0.1087857   0.0000000), wk =   0.0109240
        k(   70) = (  -0.1087857  -0.5439283   0.6527140), wk =   0.0218480
        k(   71) = (  -0.0543928  -0.4895355   0.5983211), wk =   0.0218480
        k(   72) = (   0.0000000  -0.4351426   0.5439283), wk =   0.0109240
        k(   73) = (  -0.0543928  -0.5983211   0.7071068), wk =   0.0109240
        k(   74) = (   0.0000000  -0.5439283   0.6527140), wk =   0.0109240
        k(   75) = (   0.4351426   0.2175713   0.0000000), wk =   0.0109240
        k(   76) = (  -0.2175713  -0.4351426   0.6527140), wk =   0.0218480
        k(   77) = (  -0.1631785  -0.3807498   0.5983211), wk =   0.0218480
        k(   78) = (  -0.1631785  -0.4895355   0.7071068), wk =   0.0109240
        k(   79) = (  -0.1087857  -0.4351426   0.6527140), wk =   0.0218480
        k(   80) = (  -0.0543928  -0.3807498   0.5983211), wk =   0.0218480
        k(   81) = (   0.0000000  -0.3263570   0.5439283), wk =   0.0109240
        k(   82) = (  -0.0543928  -0.4895355   0.7071068), wk =   0.0109240
        k(   83) = (   0.0000000  -0.4351426   0.6527140), wk =   0.0109240
        k(   84) = (  -0.0543928  -0.3807498   0.7071068), wk =   0.0109240

                       cryst. coord.
        k(    1) = (   0.0000000   0.0000000   0.0000000), wk =   0.0004552
        k(    2) = (   0.0000000   0.0000000   0.0769231), wk =   0.0036413
        k(    3) = (   0.0000000   0.0000000   0.1538462), wk =   0.0036413
        k(    4) = (   0.0000000   0.0000000   0.2307692), wk =   0.0036413
        k(    5) = (   0.0000000   0.0000000   0.3076923), wk =   0.0036413
        k(    6) = (   0.0000000   0.0000000   0.3846154), wk =   0.0036413
        k(    7) = (   0.0000000   0.0000000   0.4615385), wk =   0.0036413
        k(    8) = (  -0.0000000   0.0769231   0.0769231), wk =   0.0027310
        k(    9) = (  -0.0000000   0.0769231   0.1538462), wk =   0.0109240
        k(   10) = (   0.0000000   0.0769231   0.2307692), wk =   0.0109240
        k(   11) = (  -0.0000000   0.0769231   0.3076923), wk =   0.0109240
        k(   12) = (   0.0000000   0.0769231   0.3846154), wk =   0.0109240
        k(   13) = (   0.0000000   0.0769231   0.4615385), wk =   0.0109240
        k(   14) = (   0.0000000   0.0769231  -0.4615385), wk =   0.0109240
        k(   15) = (   0.0000000   0.0769231  -0.3846154), wk =   0.0109240
        k(   16) = (  -0.0000000   0.0769231  -0.3076923), wk =   0.0109240
        k(   17) = (  -0.0000000   0.0769231  -0.2307692), wk =   0.0109240
        k(   18) = (  -0.0000000   0.0769231  -0.1538462), wk =   0.0109240
        k(   19) = (  -0.0000000   0.0769231  -0.0769231), wk =   0.0054620
        k(   20) = (  -0.0000000   0.1538462   0.1538462), wk =   0.0027310
        k(   21) = (  -0.0000000   0.1538462   0.2307692), wk =   0.0109240
        k(   22) = (  -0.0000000   0.1538462   0.3076923), wk =   0.0109240
        k(   23) = (  -0.0000000   0.1538462   0.3846154), wk =   0.0109240
        k(   24) = (   0.0000000   0.1538462   0.4615385), wk =   0.0109240
        k(   25) = (  -0.0000000   0.1538462  -0.4615385), wk =   0.0109240
        k(   26) = (   0.0000000   0.1538462  -0.3846154), wk =   0.0109240
        k(   27) = (  -0.0000000   0.1538462  -0.3076923), wk =   0.0109240
        k(   28) = (  -0.0000000   0.1538462  -0.2307692), wk =   0.0109240
        k(   29) = (  -0.0000000   0.1538462  -0.1538462), wk =   0.0054620
        k(   30) = (   0.0000000   0.2307692   0.2307692), wk =   0.0027310
        k(   31) = (   0.0000000   0.2307692   0.3076923), wk =   0.0109240
        k(   32) = (  -0.0000000   0.2307692   0.3846154), wk =   0.0109240
        k(   33) = (  -0.0000000   0.2307692   0.4615385), wk =   0.0109240
        k(   34) = (  -0.0000000   0.2307692  -0.4615385), wk =   0.0109240
        k(   35) = (   0.0000000   0.2307692  -0.3846154), wk =   0.0109240
        k(   36) = (   0.0000000   0.2307692  -0.3076923), wk =   0.0109240
        k(   37) = (   0.0000000   0.2307692  -0.2307692), wk =   0.0054620
        k(   38) = (  -0.0000000   0.3076923   0.3076923), wk =   0.0027310
        k(   39) = (  -0.0000000   0.3076923   0.3846154), wk =   0.0109240
        k(   40) = (  -0.0000000   0.3076923   0.4615385), wk =   0.0109240
        k(   41) = (  -0.0000000   0.3076923  -0.4615385), wk =   0.0109240
        k(   42) = (   0.0000000   0.3076923  -0.3846154), wk =   0.0109240
        k(   43) = (  -0.0000000   0.3076923  -0.3076923), wk =   0.0054620
        k(   44) = (  -0.0000000   0.3846154   0.3846154), wk =   0.0027310
        k(   45) = (  -0.0000000   0.3846154   0.4615385), wk =   0.0109240
        k(   46) = (  -0.0000000   0.3846154  -0.4615385), wk =   0.0109240
        k(   47) = (  -0.0000000   0.3846154  -0.3846154), wk =   0.0054620
        k(   48) = (   0.0000000   0.4615385   0.4615385), wk =   0.0027310
        k(   49) = (  -0.0000000   0.4615385  -0.4615385), wk =   0.0054620
        k(   50) = (   0.0769231   0.1538462   0.2307692), wk =   0.0109240
        k(   51) = (   0.0769231   0.1538462   0.3076923), wk =   0.0218480
        k(   52) = (   0.0769231   0.1538462   0.3846154), wk =   0.0218480
        k(   53) = (   0.0769231   0.1538462   0.4615385), wk =   0.0218480
        k(   54) = (   0.0769231   0.1538462  -0.4615385), wk =   0.0218480
        k(   55) = (   0.0769231   0.2307692   0.3076923), wk =   0.0109240
        k(   56) = (   0.0769231   0.2307692   0.3846154), wk =   0.0218480
        k(   57) = (   0.0769231   0.2307692   0.4615385), wk =   0.0218480
        k(   58) = (   0.0769231   0.2307692  -0.4615385), wk =   0.0218480
        k(   59) = (   0.0769231   0.2307692  -0.3846154), wk =   0.0218480
        k(   60) = (   0.0769231   0.2307692  -0.3076923), wk =   0.0218480
        k(   61) = (   0.0769231   0.2307692  -0.2307692), wk =   0.0218480
        k(   62) = (   0.0769231   0.2307692  -0.1538462), wk =   0.0109240
        k(   63) = (   0.0769231   0.3076923   0.3846154), wk =   0.0109240
        k(   64) = (   0.0769231   0.3076923   0.4615385), wk =   0.0218480
        k(   65) = (   0.0769231   0.3076923  -0.4615385), wk =   0.0218480
        k(   66) = (   0.0769231   0.3076923  -0.3846154), wk =   0.0218480
        k(   67) = (   0.0769231   0.3076923  -0.3076923), wk =   0.0218480
        k(   68) = (   0.0769231   0.3076923  -0.2307692), wk =   0.0109240
        k(   69) = (   0.0769231   0.3846154   0.4615385), wk =   0.0109240
        k(   70) = (   0.0769231   0.3846154  -0.4615385), wk =   0.0218480
        k(   71) = (   0.0769231   0.3846154  -0.3846154), wk =   0.0218480
        k(   72) = (   0.0769231   0.3846154  -0.3076923), wk =   0.0109240
        k(   73) = (   0.0769231   0.4615385  -0.4615385), wk =   0.0109240
        k(   74) = (   0.0769231   0.4615385  -0.3846154), wk =   0.0109240
        k(   75) = (   0.1538462   0.3076923   0.4615385), wk =   0.0109240
        k(   76) = (   0.1538462   0.3076923  -0.4615385), wk =   0.0218480
        k(   77) = (   0.1538462   0.3076923  -0.3846154), wk =   0.0218480
        k(   78) = (   0.1538462   0.3846154  -0.4615385), wk =   0.0109240
        k(   79) = (   0.1538462   0.3846154  -0.3846154), wk =   0.0218480
        k(   80) = (   0.1538462   0.3846154  -0.3076923), wk =   0.0218480
        k(   81) = (   0.1538462   0.3846154  -0.2307692), wk =   0.0109240
        k(   82) = (   0.1538462   0.4615385  -0.3846154), wk =   0.0109240
        k(   83) = (   0.1538462   0.4615385  -0.3076923), wk =   0.0109240
        k(   84) = (   0.2307692   0.4615385  -0.3076923), wk =   0.0109240

     Dense  grid:   122589 G-vectors     FFT dimensions: (  72,  72,  72)

     Smooth grid:    26301 G-vectors     FFT dimensions: (  45,  45,  45)

     Dynamical RAM for                 wfc:       1.76 MB

     Dynamical RAM for     wfc (w. buffer):     296.85 MB

     Dynamical RAM for           str. fact:       3.74 MB

     Dynamical RAM for           local pot:       0.00 MB

     Dynamical RAM for          nlocal pot:       3.61 MB

     Dynamical RAM for                qrad:       4.48 MB

     Dynamical RAM for          rho,v,vnew:      28.31 MB

     Dynamical RAM for               rhoin:       9.44 MB

     Dynamical RAM for            rho*nmix:      59.86 MB

     Dynamical RAM for           G-vectors:       7.22 MB

     Dynamical RAM for          h,s,v(r/c):       0.22 MB

     Dynamical RAM for          <psi|beta>:       0.04 MB

     Dynamical RAM for                 psi:       3.51 MB

     Dynamical RAM for                hpsi:       3.51 MB

     Dynamical RAM for                spsi:       3.51 MB

     Dynamical RAM for      wfcinit/wfcrot:       4.87 MB

     Dynamical RAM for           addusdens:     355.41 MB

     Dynamical RAM for          addusforce:     362.91 MB

     Dynamical RAM for         addusstress:     378.79 MB

     Estimated static dynamical RAM per process >     376.34 MB

     Estimated max dynamical RAM per process >     814.99 MB

     Check: negative core charge=   -0.000016
     Generating pointlists ...
     new r_m :   0.2526 (alat units)  1.9645 (a.u.) for type    1
     new r_m :   0.2526 (alat units)  1.9645 (a.u.) for type    2

     Initial potential from superposition of free atoms

     starting charge      56.4971, renormalised to      58.0000
     Starting wfcs are   48 randomized atomic wfcs
     Checking if some PAW data can be deallocated... 

     total cpu time spent up to now is        6.1 secs

     per-process dynamical memory:  1041.4 Mb

     Self-consistent Calculation
[tb_dev] Currently allocated     1.61E+00 Mbytes, locked:    0 /  10
[tb_pin] Currently allocated     0.00E+00 Mbytes, locked:    0 /   0

     iteration #  1     ecut=    70.00 Ry     beta= 0.40
     Davidson diagonalization with overlap

---- Real-time Memory Report at c_bands before calling an iterative solver
          1282 MiB given to the printing process from OS
          1026 MiB allocation reported by mallinfo(arena+hblkhd)
         36225 MiB available memory on the node where the printing process lives
     GPU memory used/free/total (MiB): 926 / 15354 / 16280
------------------
     ethr =  1.00E-02,  avg # of iterations =  2.1

     total cpu time spent up to now is       10.3 secs

     total energy              =    -907.59681488 Ry
     estimated scf accuracy    <       2.28170784 Ry

     total magnetization       =     8.60 Bohr mag/cell
     absolute magnetization    =     8.76 Bohr mag/cell
[tb_dev] Currently allocated     2.29E+00 Mbytes, locked:    0 /  10
[tb_pin] Currently allocated     0.00E+00 Mbytes, locked:    0 /   0

     iteration #  2     ecut=    70.00 Ry     beta= 0.40
     Davidson diagonalization with overlap

---- Real-time Memory Report at c_bands before calling an iterative solver
          1375 MiB given to the printing process from OS
          1083 MiB allocation reported by mallinfo(arena+hblkhd)
         36206 MiB available memory on the node where the printing process lives
     GPU memory used/free/total (MiB): 1452 / 14828 / 16280
------------------
     ethr =  3.93E-03,  avg # of iterations =  3.9

     total cpu time spent up to now is       16.2 secs

     total energy              =    -907.77059201 Ry
     estimated scf accuracy    <       1.22359889 Ry

     total magnetization       =     9.18 Bohr mag/cell
     absolute magnetization    =     9.44 Bohr mag/cell
[tb_dev] Currently allocated     2.29E+00 Mbytes, locked:    0 /  10
[tb_pin] Currently allocated     0.00E+00 Mbytes, locked:    0 /   0

     iteration #  3     ecut=    70.00 Ry     beta= 0.40
     Davidson diagonalization with overlap

---- Real-time Memory Report at c_bands before calling an iterative solver
          1448 MiB given to the printing process from OS
          1085 MiB allocation reported by mallinfo(arena+hblkhd)
         36204 MiB available memory on the node where the printing process lives
     GPU memory used/free/total (MiB): 1462 / 14818 / 16280
------------------
     ethr =  2.11E-03,  avg # of iterations =  4.4

     total cpu time spent up to now is       22.1 secs

     total energy              =    -907.79924610 Ry
     estimated scf accuracy    <       4.64525054 Ry

     total magnetization       =     7.57 Bohr mag/cell
     absolute magnetization    =     7.69 Bohr mag/cell
[tb_dev] Currently allocated     2.29E+00 Mbytes, locked:    0 /  10
[tb_pin] Currently allocated     0.00E+00 Mbytes, locked:    0 /   0

     iteration #  4     ecut=    70.00 Ry     beta= 0.40
     Davidson diagonalization with overlap

---- Real-time Memory Report at c_bands before calling an iterative solver
          1518 MiB given to the printing process from OS
          1087 MiB allocation reported by mallinfo(arena+hblkhd)
         36201 MiB available memory on the node where the printing process lives
     GPU memory used/free/total (MiB): 1462 / 14818 / 16280
------------------
     ethr =  2.11E-03,  avg # of iterations =  2.5

     total cpu time spent up to now is       26.6 secs

     total energy              =    -908.13351965 Ry
     estimated scf accuracy    <       0.10021878 Ry

     total magnetization       =     8.52 Bohr mag/cell
     absolute magnetization    =     8.77 Bohr mag/cell
[tb_dev] Currently allocated     2.29E+00 Mbytes, locked:    0 /  10
[tb_pin] Currently allocated     0.00E+00 Mbytes, locked:    0 /   0

     iteration #  5     ecut=    70.00 Ry     beta= 0.40
     Davidson diagonalization with overlap

---- Real-time Memory Report at c_bands before calling an iterative solver
          1588 MiB given to the printing process from OS
          1089 MiB allocation reported by mallinfo(arena+hblkhd)
         36201 MiB available memory on the node where the printing process lives
     GPU memory used/free/total (MiB): 1462 / 14818 / 16280
------------------
     ethr =  1.73E-04,  avg # of iterations =  6.4

     total cpu time spent up to now is       34.4 secs

     total energy              =    -908.18517023 Ry
     estimated scf accuracy    <       0.06049393 Ry

     total magnetization       =     7.64 Bohr mag/cell
     absolute magnetization    =     7.98 Bohr mag/cell
[tb_dev] Currently allocated     2.29E+00 Mbytes, locked:    0 /  10
[tb_pin] Currently allocated     0.00E+00 Mbytes, locked:    0 /   0

     iteration #  6     ecut=    70.00 Ry     beta= 0.40
     Davidson diagonalization with overlap

---- Real-time Memory Report at c_bands before calling an iterative solver
          1658 MiB given to the printing process from OS
          1091 MiB allocation reported by mallinfo(arena+hblkhd)
         36195 MiB available memory on the node where the printing process lives
     GPU memory used/free/total (MiB): 1462 / 14818 / 16280
------------------
     ethr =  1.04E-04,  avg # of iterations =  1.3

     total cpu time spent up to now is       38.3 secs

     total energy              =    -908.19863851 Ry
     estimated scf accuracy    <       0.04080627 Ry

     total magnetization       =     7.44 Bohr mag/cell
     absolute magnetization    =     7.78 Bohr mag/cell
[tb_dev] Currently allocated     2.29E+00 Mbytes, locked:    0 /  10
[tb_pin] Currently allocated     0.00E+00 Mbytes, locked:    0 /   0

     iteration #  7     ecut=    70.00 Ry     beta= 0.40
     Davidson diagonalization with overlap

---- Real-time Memory Report at c_bands before calling an iterative solver
          1726 MiB given to the printing process from OS
          1092 MiB allocation reported by mallinfo(arena+hblkhd)
         36192 MiB available memory on the node where the printing process lives
     GPU memory used/free/total (MiB): 1462 / 14818 / 16280
------------------
     ethr =  7.04E-05,  avg # of iterations =  3.7

     total cpu time spent up to now is       43.9 secs

     total energy              =    -908.22162549 Ry
     estimated scf accuracy    <       0.07311421 Ry

     total magnetization       =     6.10 Bohr mag/cell
     absolute magnetization    =     6.45 Bohr mag/cell
[tb_dev] Currently allocated     2.29E+00 Mbytes, locked:    0 /  10
[tb_pin] Currently allocated     0.00E+00 Mbytes, locked:    0 /   0

     iteration #  8     ecut=    70.00 Ry     beta= 0.40
     Davidson diagonalization with overlap

---- Real-time Memory Report at c_bands before calling an iterative solver
          1792 MiB given to the printing process from OS
          1094 MiB allocation reported by mallinfo(arena+hblkhd)
         36187 MiB available memory on the node where the printing process lives
     GPU memory used/free/total (MiB): 1462 / 14818 / 16280
------------------
     ethr =  7.04E-05,  avg # of iterations =  1.6

     total cpu time spent up to now is       47.9 secs

     total energy              =    -908.22464081 Ry
     estimated scf accuracy    <       0.01623113 Ry

     total magnetization       =     5.99 Bohr mag/cell
     absolute magnetization    =     6.32 Bohr mag/cell
[tb_dev] Currently allocated     2.29E+00 Mbytes, locked:    0 /  10
[tb_pin] Currently allocated     0.00E+00 Mbytes, locked:    0 /   0

     iteration #  9     ecut=    70.00 Ry     beta= 0.40
     Davidson diagonalization with overlap

---- Real-time Memory Report at c_bands before calling an iterative solver
          1816 MiB given to the printing process from OS
          1096 MiB allocation reported by mallinfo(arena+hblkhd)
         36184 MiB available memory on the node where the printing process lives
     GPU memory used/free/total (MiB): 1462 / 14818 / 16280
------------------
     ethr =  2.80E-05,  avg # of iterations =  3.5

     total cpu time spent up to now is       53.1 secs

     total energy              =    -908.22643268 Ry
     estimated scf accuracy    <       0.00993529 Ry

     total magnetization       =     5.84 Bohr mag/cell
     absolute magnetization    =     6.14 Bohr mag/cell
[tb_dev] Currently allocated     2.29E+00 Mbytes, locked:    0 /  10
[tb_pin] Currently allocated     0.00E+00 Mbytes, locked:    0 /   0

     iteration # 10     ecut=    70.00 Ry     beta= 0.40
     Davidson diagonalization with overlap

---- Real-time Memory Report at c_bands before calling an iterative solver
          1842 MiB given to the printing process from OS
          1098 MiB allocation reported by mallinfo(arena+hblkhd)
         36175 MiB available memory on the node where the printing process lives
     GPU memory used/free/total (MiB): 1462 / 14818 / 16280
------------------
     ethr =  1.71E-05,  avg # of iterations =  2.6

     total cpu time spent up to now is       57.7 secs

     total energy              =    -908.22710926 Ry
     estimated scf accuracy    <       0.00497200 Ry

     total magnetization       =     5.69 Bohr mag/cell
     absolute magnetization    =     5.98 Bohr mag/cell
[tb_dev] Currently allocated     2.29E+00 Mbytes, locked:    0 /  10
[tb_pin] Currently allocated     0.00E+00 Mbytes, locked:    0 /   0

     iteration # 11     ecut=    70.00 Ry     beta= 0.40
     Davidson diagonalization with overlap

---- Real-time Memory Report at c_bands before calling an iterative solver
          1864 MiB given to the printing process from OS
          1100 MiB allocation reported by mallinfo(arena+hblkhd)
         36174 MiB available memory on the node where the printing process lives
     GPU memory used/free/total (MiB): 1462 / 14818 / 16280
------------------
     ethr =  8.57E-06,  avg # of iterations =  4.2

     total cpu time spent up to now is       63.3 secs

     total energy              =    -908.22776751 Ry
     estimated scf accuracy    <       0.00106945 Ry

     total magnetization       =     5.56 Bohr mag/cell
     absolute magnetization    =     5.86 Bohr mag/cell
[tb_dev] Currently allocated     2.29E+00 Mbytes, locked:    0 /  10
[tb_pin] Currently allocated     0.00E+00 Mbytes, locked:    0 /   0

     iteration # 12     ecut=    70.00 Ry     beta= 0.40
     Davidson diagonalization with overlap

---- Real-time Memory Report at c_bands before calling an iterative solver
          1886 MiB given to the printing process from OS
          1102 MiB allocation reported by mallinfo(arena+hblkhd)
         36173 MiB available memory on the node where the printing process lives
     GPU memory used/free/total (MiB): 1462 / 14818 / 16280
------------------
     c_bands:  1 eigenvalues not converged
     c_bands:  1 eigenvalues not converged
     c_bands:  1 eigenvalues not converged
     ethr =  1.84E-06,  avg # of iterations =  6.7

     total cpu time spent up to now is       71.3 secs

     total energy              =    -908.22825772 Ry
     estimated scf accuracy    <       0.00019555 Ry

     total magnetization       =     5.46 Bohr mag/cell
     absolute magnetization    =     5.75 Bohr mag/cell
[tb_dev] Currently allocated     2.29E+00 Mbytes, locked:    0 /  10
[tb_pin] Currently allocated     0.00E+00 Mbytes, locked:    0 /   0

     iteration # 13     ecut=    70.00 Ry     beta= 0.40
     Davidson diagonalization with overlap

---- Real-time Memory Report at c_bands before calling an iterative solver
          1908 MiB given to the printing process from OS
          1103 MiB allocation reported by mallinfo(arena+hblkhd)
         36171 MiB available memory on the node where the printing process lives
     GPU memory used/free/total (MiB): 1462 / 14818 / 16280
------------------
     ethr =  3.37E-07,  avg # of iterations =  4.5

     total cpu time spent up to now is       77.3 secs

     total energy              =    -908.22833962 Ry
     estimated scf accuracy    <       0.00010400 Ry

     total magnetization       =     5.42 Bohr mag/cell
     absolute magnetization    =     5.71 Bohr mag/cell
[tb_dev] Currently allocated     2.29E+00 Mbytes, locked:    0 /  10
[tb_pin] Currently allocated     0.00E+00 Mbytes, locked:    0 /   0

     iteration # 14     ecut=    70.00 Ry     beta= 0.40
     Davidson diagonalization with overlap

---- Real-time Memory Report at c_bands before calling an iterative solver
          1931 MiB given to the printing process from OS
          1105 MiB allocation reported by mallinfo(arena+hblkhd)
         36168 MiB available memory on the node where the printing process lives
     GPU memory used/free/total (MiB): 1462 / 14818 / 16280
------------------
     ethr =  1.79E-07,  avg # of iterations =  2.6

     total cpu time spent up to now is       81.9 secs

     total energy              =    -908.22831920 Ry
     estimated scf accuracy    <       0.00012684 Ry

     total magnetization       =     5.39 Bohr mag/cell
     absolute magnetization    =     5.68 Bohr mag/cell
[tb_dev] Currently allocated     2.29E+00 Mbytes, locked:    0 /  10
[tb_pin] Currently allocated     0.00E+00 Mbytes, locked:    0 /   0

     iteration # 15     ecut=    70.00 Ry     beta= 0.40
     Davidson diagonalization with overlap

---- Real-time Memory Report at c_bands before calling an iterative solver
          1953 MiB given to the printing process from OS
          1107 MiB allocation reported by mallinfo(arena+hblkhd)
         36169 MiB available memory on the node where the printing process lives
     GPU memory used/free/total (MiB): 1462 / 14818 / 16280
------------------
     ethr =  1.79E-07,  avg # of iterations =  1.1

     total cpu time spent up to now is       85.6 secs

     total energy              =    -908.22802348 Ry
     estimated scf accuracy    <       0.00009848 Ry

     total magnetization       =     5.42 Bohr mag/cell
     absolute magnetization    =     5.71 Bohr mag/cell
[tb_dev] Currently allocated     2.29E+00 Mbytes, locked:    0 /  10
[tb_pin] Currently allocated     0.00E+00 Mbytes, locked:    0 /   0

     iteration # 16     ecut=    70.00 Ry     beta= 0.40
     Davidson diagonalization with overlap

---- Real-time Memory Report at c_bands before calling an iterative solver
          1974 MiB given to the printing process from OS
          1109 MiB allocation reported by mallinfo(arena+hblkhd)
         36164 MiB available memory on the node where the printing process lives
     GPU memory used/free/total (MiB): 1462 / 14818 / 16280
------------------
     ethr =  1.70E-07,  avg # of iterations =  5.0

     total cpu time spent up to now is       92.5 secs

     total energy              =    -908.22819199 Ry
     estimated scf accuracy    <       0.00010411 Ry

     total magnetization       =     5.57 Bohr mag/cell
     absolute magnetization    =     5.86 Bohr mag/cell
[tb_dev] Currently allocated     2.29E+00 Mbytes, locked:    0 /  10
[tb_pin] Currently allocated     0.00E+00 Mbytes, locked:    0 /   0

     iteration # 17     ecut=    70.00 Ry     beta= 0.40
     Davidson diagonalization with overlap

---- Real-time Memory Report at c_bands before calling an iterative solver
          1996 MiB given to the printing process from OS
          1111 MiB allocation reported by mallinfo(arena+hblkhd)
         36163 MiB available memory on the node where the printing process lives
     GPU memory used/free/total (MiB): 1462 / 14818 / 16280
------------------
     ethr =  1.70E-07,  avg # of iterations =  4.3

     total cpu time spent up to now is       98.4 secs

     total energy              =    -908.22830576 Ry
     estimated scf accuracy    <       0.00008308 Ry

     total magnetization       =     5.45 Bohr mag/cell
     absolute magnetization    =     5.74 Bohr mag/cell
[tb_dev] Currently allocated     2.29E+00 Mbytes, locked:    0 /  10
[tb_pin] Currently allocated     0.00E+00 Mbytes, locked:    0 /   0

     iteration # 18     ecut=    70.00 Ry     beta= 0.40
     Davidson diagonalization with overlap

---- Real-time Memory Report at c_bands before calling an iterative solver
          2010 MiB given to the printing process from OS
          1113 MiB allocation reported by mallinfo(arena+hblkhd)
         36148 MiB available memory on the node where the printing process lives
     GPU memory used/free/total (MiB): 1462 / 14818 / 16280
------------------
     ethr =  1.43E-07,  avg # of iterations =  4.9

     total cpu time spent up to now is      104.8 secs

     total energy              =    -908.22831663 Ry
     estimated scf accuracy    <       0.00016378 Ry

     total magnetization       =     5.35 Bohr mag/cell
     absolute magnetization    =     5.63 Bohr mag/cell
[tb_dev] Currently allocated     2.29E+00 Mbytes, locked:    0 /  10
[tb_pin] Currently allocated     0.00E+00 Mbytes, locked:    0 /   0

     iteration # 19     ecut=    70.00 Ry     beta= 0.40
     Davidson diagonalization with overlap

---- Real-time Memory Report at c_bands before calling an iterative solver
          2021 MiB given to the printing process from OS
          1115 MiB allocation reported by mallinfo(arena+hblkhd)
         36154 MiB available memory on the node where the printing process lives
     GPU memory used/free/total (MiB): 1462 / 14818 / 16280
------------------
     ethr =  1.43E-07,  avg # of iterations =  2.8

     total cpu time spent up to now is      109.5 secs

     total energy              =    -908.22820901 Ry
     estimated scf accuracy    <       0.00010391 Ry

     total magnetization       =     5.40 Bohr mag/cell
     absolute magnetization    =     5.69 Bohr mag/cell
[tb_dev] Currently allocated     2.29E+00 Mbytes, locked:    0 /  10
[tb_pin] Currently allocated     0.00E+00 Mbytes, locked:    0 /   0

     iteration # 20     ecut=    70.00 Ry     beta= 0.40
     Davidson diagonalization with overlap

---- Real-time Memory Report at c_bands before calling an iterative solver
          2023 MiB given to the printing process from OS
          1116 MiB allocation reported by mallinfo(arena+hblkhd)
         36151 MiB available memory on the node where the printing process lives
     GPU memory used/free/total (MiB): 1462 / 14818 / 16280
------------------
     ethr =  1.43E-07,  avg # of iterations =  4.5

     total cpu time spent up to now is      115.4 secs

     total energy              =    -908.22820399 Ry
     estimated scf accuracy    <       0.00007255 Ry

     total magnetization       =     5.49 Bohr mag/cell
     absolute magnetization    =     5.78 Bohr mag/cell
[tb_dev] Currently allocated     2.29E+00 Mbytes, locked:    0 /  10
[tb_pin] Currently allocated     0.00E+00 Mbytes, locked:    0 /   0

     iteration # 21     ecut=    70.00 Ry     beta= 0.40
     Davidson diagonalization with overlap

---- Real-time Memory Report at c_bands before calling an iterative solver
          2024 MiB given to the printing process from OS
          1118 MiB allocation reported by mallinfo(arena+hblkhd)
         36154 MiB available memory on the node where the printing process lives
     GPU memory used/free/total (MiB): 1462 / 14818 / 16280
------------------
     ethr =  1.25E-07,  avg # of iterations =  3.8

     total cpu time spent up to now is      120.7 secs

     total energy              =    -908.22813840 Ry
     estimated scf accuracy    <       0.00004185 Ry

     total magnetization       =     5.55 Bohr mag/cell
     absolute magnetization    =     5.84 Bohr mag/cell
[tb_dev] Currently allocated     2.29E+00 Mbytes, locked:    0 /  10
[tb_pin] Currently allocated     0.00E+00 Mbytes, locked:    0 /   0

     iteration # 22     ecut=    70.00 Ry     beta= 0.40
     Davidson diagonalization with overlap

---- Real-time Memory Report at c_bands before calling an iterative solver
          2026 MiB given to the printing process from OS
          1120 MiB allocation reported by mallinfo(arena+hblkhd)
         36153 MiB available memory on the node where the printing process lives
     GPU memory used/free/total (MiB): 1462 / 14818 / 16280
------------------
     ethr =  7.22E-08,  avg # of iterations =  6.3

     total cpu time spent up to now is      128.4 secs

     total energy              =    -908.22796833 Ry
     estimated scf accuracy    <       0.00002911 Ry

     total magnetization       =     5.62 Bohr mag/cell
     absolute magnetization    =     5.91 Bohr mag/cell
[tb_dev] Currently allocated     2.29E+00 Mbytes, locked:    0 /  10
[tb_pin] Currently allocated     0.00E+00 Mbytes, locked:    0 /   0

     iteration # 23     ecut=    70.00 Ry     beta= 0.40
     Davidson diagonalization with overlap

---- Real-time Memory Report at c_bands before calling an iterative solver
          2031 MiB given to the printing process from OS
          1122 MiB allocation reported by mallinfo(arena+hblkhd)
         36150 MiB available memory on the node where the printing process lives
     GPU memory used/free/total (MiB): 1462 / 14818 / 16280
------------------
     ethr =  5.02E-08,  avg # of iterations =  5.8

     total cpu time spent up to now is      135.9 secs

     total energy              =    -908.22370791 Ry
     estimated scf accuracy    <       0.00005886 Ry

     total magnetization       =     5.72 Bohr mag/cell
     absolute magnetization    =     6.02 Bohr mag/cell
[tb_dev] Currently allocated     2.29E+00 Mbytes, locked:    0 /  10
[tb_pin] Currently allocated     0.00E+00 Mbytes, locked:    0 /   0

     iteration # 24     ecut=    70.00 Ry     beta= 0.40
     Davidson diagonalization with overlap

---- Real-time Memory Report at c_bands before calling an iterative solver
          2032 MiB given to the printing process from OS
          1124 MiB allocation reported by mallinfo(arena+hblkhd)
         36150 MiB available memory on the node where the printing process lives
     GPU memory used/free/total (MiB): 1462 / 14818 / 16280
------------------
     c_bands:  1 eigenvalues not converged
     ethr =  5.02E-08,  avg # of iterations = 11.6

     total cpu time spent up to now is      148.9 secs

     total energy              =    -908.22579914 Ry
     estimated scf accuracy    <       0.00037805 Ry

     total magnetization       =     4.94 Bohr mag/cell
     absolute magnetization    =     5.23 Bohr mag/cell
[tb_dev] Currently allocated     2.29E+00 Mbytes, locked:    0 /  10
[tb_pin] Currently allocated     0.00E+00 Mbytes, locked:    0 /   0

     iteration # 25     ecut=    70.00 Ry     beta= 0.40
     Davidson diagonalization with overlap

---- Real-time Memory Report at c_bands before calling an iterative solver
          2034 MiB given to the printing process from OS
          1126 MiB allocation reported by mallinfo(arena+hblkhd)
         36149 MiB available memory on the node where the printing process lives
     GPU memory used/free/total (MiB): 1462 / 14818 / 16280
------------------
     ethr =  5.02E-08,  avg # of iterations =  9.3

     total cpu time spent up to now is      159.2 secs

     total energy              =    -908.22739116 Ry
     estimated scf accuracy    <       0.00003845 Ry

     total magnetization       =     5.49 Bohr mag/cell
     absolute magnetization    =     5.78 Bohr mag/cell
[tb_dev] Currently allocated     2.29E+00 Mbytes, locked:    0 /  10
[tb_pin] Currently allocated     0.00E+00 Mbytes, locked:    0 /   0

     iteration # 26     ecut=    70.00 Ry     beta= 0.40
     Davidson diagonalization with overlap

---- Real-time Memory Report at c_bands before calling an iterative solver
          2037 MiB given to the printing process from OS
          1127 MiB allocation reported by mallinfo(arena+hblkhd)
         36144 MiB available memory on the node where the printing process lives
     GPU memory used/free/total (MiB): 1462 / 14818 / 16280
------------------
     ethr =  5.02E-08,  avg # of iterations =  8.5

     total cpu time spent up to now is      168.8 secs

     total energy              =    -908.22719161 Ry
     estimated scf accuracy    <       0.00004247 Ry

     total magnetization       =     5.73 Bohr mag/cell
     absolute magnetization    =     6.03 Bohr mag/cell
[tb_dev] Currently allocated     2.29E+00 Mbytes, locked:    0 /  10
[tb_pin] Currently allocated     0.00E+00 Mbytes, locked:    0 /   0

     iteration # 27     ecut=    70.00 Ry     beta= 0.40
     Davidson diagonalization with overlap

---- Real-time Memory Report at c_bands before calling an iterative solver
          2039 MiB given to the printing process from OS
          1129 MiB allocation reported by mallinfo(arena+hblkhd)
         36145 MiB available memory on the node where the printing process lives
     GPU memory used/free/total (MiB): 1462 / 14818 / 16280
------------------
     ethr =  5.02E-08,  avg # of iterations =  9.0

     total cpu time spent up to now is      178.7 secs

     total energy              =    -908.22776631 Ry
     estimated scf accuracy    <       0.00029326 Ry

     total magnetization       =     5.89 Bohr mag/cell
     absolute magnetization    =     6.21 Bohr mag/cell
[tb_dev] Currently allocated     2.29E+00 Mbytes, locked:    0 /  10
[tb_pin] Currently allocated     0.00E+00 Mbytes, locked:    0 /   0

     iteration # 28     ecut=    70.00 Ry     beta= 0.40
     Davidson diagonalization with overlap

---- Real-time Memory Report at c_bands before calling an iterative solver
          2040 MiB given to the printing process from OS
          1131 MiB allocation reported by mallinfo(arena+hblkhd)
         36144 MiB available memory on the node where the printing process lives
     GPU memory used/free/total (MiB): 1462 / 14818 / 16280
------------------
     ethr =  5.02E-08,  avg # of iterations =  2.0

     total cpu time spent up to now is      182.9 secs

     total energy              =    -908.22782857 Ry
     estimated scf accuracy    <       0.00024914 Ry

     total magnetization       =     5.88 Bohr mag/cell
     absolute magnetization    =     6.19 Bohr mag/cell
[tb_dev] Currently allocated     2.29E+00 Mbytes, locked:    0 /  10
[tb_pin] Currently allocated     0.00E+00 Mbytes, locked:    0 /   0

     iteration # 29     ecut=    70.00 Ry     beta= 0.40
     Davidson diagonalization with overlap

---- Real-time Memory Report at c_bands before calling an iterative solver
          2042 MiB given to the printing process from OS
          1133 MiB allocation reported by mallinfo(arena+hblkhd)
         36142 MiB available memory on the node where the printing process lives
     GPU memory used/free/total (MiB): 1462 / 14818 / 16280
------------------
     ethr =  5.02E-08,  avg # of iterations =  3.8

     total cpu time spent up to now is      188.1 secs

     total energy              =    -908.22791903 Ry
     estimated scf accuracy    <       0.00019873 Ry

     total magnetization       =     5.86 Bohr mag/cell
     absolute magnetization    =     6.17 Bohr mag/cell
[tb_dev] Currently allocated     2.29E+00 Mbytes, locked:    0 /  10
[tb_pin] Currently allocated     0.00E+00 Mbytes, locked:    0 /   0

     iteration # 30     ecut=    70.00 Ry     beta= 0.40
     Davidson diagonalization with overlap

---- Real-time Memory Report at c_bands before calling an iterative solver
          2045 MiB given to the printing process from OS
          1135 MiB allocation reported by mallinfo(arena+hblkhd)
         36137 MiB available memory on the node where the printing process lives
     GPU memory used/free/total (MiB): 1462 / 14818 / 16280
------------------
     ethr =  5.02E-08,  avg # of iterations =  5.2

     total cpu time spent up to now is      194.9 secs

     total energy              =    -908.22794535 Ry
     estimated scf accuracy    <       0.00011071 Ry

     total magnetization       =     5.82 Bohr mag/cell
     absolute magnetization    =     6.12 Bohr mag/cell
[tb_dev] Currently allocated     2.29E+00 Mbytes, locked:    0 /  10
[tb_pin] Currently allocated     0.00E+00 Mbytes, locked:    0 /   0

     iteration # 31     ecut=    70.00 Ry     beta= 0.40
     Davidson diagonalization with overlap

---- Real-time Memory Report at c_bands before calling an iterative solver
          2046 MiB given to the printing process from OS
          1137 MiB allocation reported by mallinfo(arena+hblkhd)
         36134 MiB available memory on the node where the printing process lives
     GPU memory used/free/total (MiB): 1462 / 14818 / 16280
------------------
     ethr =  5.02E-08,  avg # of iterations =  1.1

     total cpu time spent up to now is      198.7 secs

     total energy              =    -908.22799270 Ry
     estimated scf accuracy    <       0.00011364 Ry

     total magnetization       =     5.82 Bohr mag/cell
     absolute magnetization    =     6.13 Bohr mag/cell
[tb_dev] Currently allocated     2.29E+00 Mbytes, locked:    0 /  10
[tb_pin] Currently allocated     0.00E+00 Mbytes, locked:    0 /   0

     iteration # 32     ecut=    70.00 Ry     beta= 0.40
     Davidson diagonalization with overlap

---- Real-time Memory Report at c_bands before calling an iterative solver
          2047 MiB given to the printing process from OS
          1139 MiB allocation reported by mallinfo(arena+hblkhd)
         36136 MiB available memory on the node where the printing process lives
     GPU memory used/free/total (MiB): 1462 / 14818 / 16280
------------------
     ethr =  5.02E-08,  avg # of iterations =  5.7

     total cpu time spent up to now is      206.2 secs

     total energy              =    -908.22799364 Ry
     estimated scf accuracy    <       0.00005525 Ry

     total magnetization       =     5.75 Bohr mag/cell
     absolute magnetization    =     6.06 Bohr mag/cell
[tb_dev] Currently allocated     2.29E+00 Mbytes, locked:    0 /  10
[tb_pin] Currently allocated     0.00E+00 Mbytes, locked:    0 /   0

     iteration # 33     ecut=    70.00 Ry     beta= 0.40
     Davidson diagonalization with overlap

---- Real-time Memory Report at c_bands before calling an iterative solver
          2050 MiB given to the printing process from OS
          1140 MiB allocation reported by mallinfo(arena+hblkhd)
         36133 MiB available memory on the node where the printing process lives
     GPU memory used/free/total (MiB): 1462 / 14818 / 16280
------------------
     ethr =  5.02E-08,  avg # of iterations =  6.6

     total cpu time spent up to now is      214.2 secs

     total energy              =    -908.22812304 Ry
     estimated scf accuracy    <       0.00002020 Ry

     total magnetization       =     5.63 Bohr mag/cell
     absolute magnetization    =     5.93 Bohr mag/cell
[tb_dev] Currently allocated     2.29E+00 Mbytes, locked:    0 /  10
[tb_pin] Currently allocated     0.00E+00 Mbytes, locked:    0 /   0

     iteration # 34     ecut=    70.00 Ry     beta= 0.40
     Davidson diagonalization with overlap

---- Real-time Memory Report at c_bands before calling an iterative solver
          2052 MiB given to the printing process from OS
          1142 MiB allocation reported by mallinfo(arena+hblkhd)
         36131 MiB available memory on the node where the printing process lives
     GPU memory used/free/total (MiB): 1462 / 14818 / 16280
------------------
     ethr =  3.48E-08,  avg # of iterations =  7.4

     total cpu time spent up to now is      222.8 secs

     total energy              =    -908.22825538 Ry
     estimated scf accuracy    <       0.00001959 Ry

     total magnetization       =     5.52 Bohr mag/cell
     absolute magnetization    =     5.81 Bohr mag/cell
[tb_dev] Currently allocated     2.29E+00 Mbytes, locked:    0 /  10
[tb_pin] Currently allocated     0.00E+00 Mbytes, locked:    0 /   0

     iteration # 35     ecut=    70.00 Ry     beta= 0.40
     Davidson diagonalization with overlap

---- Real-time Memory Report at c_bands before calling an iterative solver
          2053 MiB given to the printing process from OS
          1144 MiB allocation reported by mallinfo(arena+hblkhd)
         36132 MiB available memory on the node where the printing process lives
     GPU memory used/free/total (MiB): 1462 / 14818 / 16280
------------------
     ethr =  3.38E-08,  avg # of iterations =  6.0

     total cpu time spent up to now is      230.3 secs

     total energy              =    -908.22751247 Ry
     estimated scf accuracy    <       0.00002737 Ry

     total magnetization       =     5.44 Bohr mag/cell
     absolute magnetization    =     5.73 Bohr mag/cell
[tb_dev] Currently allocated     2.29E+00 Mbytes, locked:    0 /  10
[tb_pin] Currently allocated     0.00E+00 Mbytes, locked:    0 /   0

     iteration # 36     ecut=    70.00 Ry     beta= 0.40
     Davidson diagonalization with overlap

---- Real-time Memory Report at c_bands before calling an iterative solver
          2055 MiB given to the printing process from OS
          1146 MiB allocation reported by mallinfo(arena+hblkhd)
         36128 MiB available memory on the node where the printing process lives
     GPU memory used/free/total (MiB): 1462 / 14818 / 16280
------------------
     ethr =  3.38E-08,  avg # of iterations =  8.2

     total cpu time spent up to now is      239.7 secs

     total energy              =    -908.22814763 Ry
     estimated scf accuracy    <       0.00003297 Ry

     total magnetization       =     5.68 Bohr mag/cell
     absolute magnetization    =     5.98 Bohr mag/cell
[tb_dev] Currently allocated     2.29E+00 Mbytes, locked:    0 /  10
[tb_pin] Currently allocated     0.00E+00 Mbytes, locked:    0 /   0

     iteration # 37     ecut=    70.00 Ry     beta= 0.40
     Davidson diagonalization with overlap

---- Real-time Memory Report at c_bands before calling an iterative solver
          2058 MiB given to the printing process from OS
          1148 MiB allocation reported by mallinfo(arena+hblkhd)
         36129 MiB available memory on the node where the printing process lives
     GPU memory used/free/total (MiB): 1462 / 14818 / 16280
------------------
     ethr =  3.38E-08,  avg # of iterations =  1.1

     total cpu time spent up to now is      243.5 secs

     total energy              =    -908.22785294 Ry
     estimated scf accuracy    <       0.00003576 Ry

     total magnetization       =     5.69 Bohr mag/cell
     absolute magnetization    =     5.99 Bohr mag/cell
[tb_dev] Currently allocated     2.29E+00 Mbytes, locked:    0 /  10
[tb_pin] Currently allocated     0.00E+00 Mbytes, locked:    0 /   0

     iteration # 38     ecut=    70.00 Ry     beta= 0.40
     Davidson diagonalization with overlap

---- Real-time Memory Report at c_bands before calling an iterative solver
          2059 MiB given to the printing process from OS
          1150 MiB allocation reported by mallinfo(arena+hblkhd)
         36120 MiB available memory on the node where the printing process lives
     GPU memory used/free/total (MiB): 1462 / 14818 / 16280
------------------
     ethr =  3.38E-08,  avg # of iterations =  7.2

     total cpu time spent up to now is      251.9 secs

     total energy              =    -908.22803560 Ry
     estimated scf accuracy    <       0.00009733 Ry

     total magnetization       =     5.79 Bohr mag/cell
     absolute magnetization    =     6.10 Bohr mag/cell
[tb_dev] Currently allocated     2.29E+00 Mbytes, locked:    0 /  10
[tb_pin] Currently allocated     0.00E+00 Mbytes, locked:    0 /   0

     iteration # 39     ecut=    70.00 Ry     beta= 0.40
     Davidson diagonalization with overlap

---- Real-time Memory Report at c_bands before calling an iterative solver
          2060 MiB given to the printing process from OS
          1151 MiB allocation reported by mallinfo(arena+hblkhd)
         36123 MiB available memory on the node where the printing process lives
     GPU memory used/free/total (MiB): 1462 / 14818 / 16280
------------------
     ethr =  3.38E-08,  avg # of iterations =  5.3

     total cpu time spent up to now is      259.0 secs

     total energy              =    -908.22814198 Ry
     estimated scf accuracy    <       0.00004453 Ry

     total magnetization       =     5.72 Bohr mag/cell
     absolute magnetization    =     6.02 Bohr mag/cell
[tb_dev] Currently allocated     2.29E+00 Mbytes, locked:    0 /  10
[tb_pin] Currently allocated     0.00E+00 Mbytes, locked:    0 /   0

     iteration # 40     ecut=    70.00 Ry     beta= 0.40
     Davidson diagonalization with overlap

---- Real-time Memory Report at c_bands before calling an iterative solver
          2063 MiB given to the printing process from OS
          1153 MiB allocation reported by mallinfo(arena+hblkhd)
         36122 MiB available memory on the node where the printing process lives
     GPU memory used/free/total (MiB): 1462 / 14818 / 16280
------------------
     ethr =  3.38E-08,  avg # of iterations =  4.9

     total cpu time spent up to now is      265.3 secs

     total energy              =    -908.22815468 Ry
     estimated scf accuracy    <       0.00003046 Ry

     total magnetization       =     5.68 Bohr mag/cell
     absolute magnetization    =     5.98 Bohr mag/cell
[tb_dev] Currently allocated     2.29E+00 Mbytes, locked:    0 /  10
[tb_pin] Currently allocated     0.00E+00 Mbytes, locked:    0 /   0

     iteration # 41     ecut=    70.00 Ry     beta= 0.40
     Davidson diagonalization with overlap

---- Real-time Memory Report at c_bands before calling an iterative solver
          2065 MiB given to the printing process from OS
          1155 MiB allocation reported by mallinfo(arena+hblkhd)
         36118 MiB available memory on the node where the printing process lives
     GPU memory used/free/total (MiB): 1462 / 14818 / 16280
------------------
     ethr =  3.38E-08,  avg # of iterations =  1.0

     total cpu time spent up to now is      269.1 secs

     total energy              =    -908.22816899 Ry
     estimated scf accuracy    <       0.00002931 Ry

     total magnetization       =     5.69 Bohr mag/cell
     absolute magnetization    =     5.98 Bohr mag/cell
[tb_dev] Currently allocated     2.29E+00 Mbytes, locked:    0 /  10
[tb_pin] Currently allocated     0.00E+00 Mbytes, locked:    0 /   0

     iteration # 42     ecut=    70.00 Ry     beta= 0.40
     Davidson diagonalization with overlap

---- Real-time Memory Report at c_bands before calling an iterative solver
          2068 MiB given to the printing process from OS
          1174 MiB allocation reported by mallinfo(arena+hblkhd)
         36113 MiB available memory on the node where the printing process lives
     GPU memory used/free/total (MiB): 1462 / 14818 / 16280
------------------
     ethr =  3.38E-08,  avg # of iterations =  4.4

     total cpu time spent up to now is      274.9 secs

     total energy              =    -908.22820052 Ry
     estimated scf accuracy    <       0.00002203 Ry

     total magnetization       =     5.65 Bohr mag/cell
     absolute magnetization    =     5.94 Bohr mag/cell
[tb_dev] Currently allocated     2.29E+00 Mbytes, locked:    0 /  10
[tb_pin] Currently allocated     0.00E+00 Mbytes, locked:    0 /   0

     iteration # 43     ecut=    70.00 Ry     beta= 0.40
     Davidson diagonalization with overlap

---- Real-time Memory Report at c_bands before calling an iterative solver
          2070 MiB given to the printing process from OS
          1176 MiB allocation reported by mallinfo(arena+hblkhd)
         36115 MiB available memory on the node where the printing process lives
     GPU memory used/free/total (MiB): 1462 / 14818 / 16280
------------------
     ethr =  3.38E-08,  avg # of iterations =  3.7

     total cpu time spent up to now is      280.1 secs

     total energy              =    -908.22821702 Ry
     estimated scf accuracy    <       0.00001955 Ry

     total magnetization       =     5.62 Bohr mag/cell
     absolute magnetization    =     5.91 Bohr mag/cell
[tb_dev] Currently allocated     2.29E+00 Mbytes, locked:    0 /  10
[tb_pin] Currently allocated     0.00E+00 Mbytes, locked:    0 /   0

     iteration # 44     ecut=    70.00 Ry     beta= 0.40
     Davidson diagonalization with overlap

[...]

     iteration # 65     ecut=    70.00 Ry     beta= 0.40
     Davidson diagonalization with overlap

---- Real-time Memory Report at c_bands before calling an iterative solver
          2117 MiB given to the printing process from OS
          1218 MiB allocation reported by mallinfo(arena+hblkhd)
         36068 MiB available memory on the node where the printing process lives
     GPU memory used/free/total (MiB): 1462 / 14818 / 16280
------------------
     ethr =  2.18E-08,  avg # of iterations = 11.5

     total cpu time spent up to now is      455.9 secs

     total energy              =    -908.22790304 Ry
     estimated scf accuracy    <       0.00036864 Ry

     total magnetization       =     4.91 Bohr mag/cell
     absolute magnetization    =     5.20 Bohr mag/cell
[tb_dev] Currently allocated     2.29E+00 Mbytes, locked:    0 /  10
[tb_pin] Currently allocated     0.00E+00 Mbytes, locked:    0 /   0

     iteration # 66     ecut=    70.00 Ry     beta= 0.40
     Davidson diagonalization with overlap

---- Real-time Memory Report at c_bands before calling an iterative solver
          2118 MiB given to the printing process from OS
          1220 MiB allocation reported by mallinfo(arena+hblkhd)
         36069 MiB available memory on the node where the printing process lives
     GPU memory used/free/total (MiB): 1462 / 14818 / 16280
------------------
     ethr =  2.18E-08,  avg # of iterations =  8.0

     total cpu time spent up to now is      465.3 secs

     total energy              =    -908.22848864 Ry
     estimated scf accuracy    <       0.00009832 Ry

     total magnetization       =     5.20 Bohr mag/cell
     absolute magnetization    =     5.48 Bohr mag/cell
[tb_dev] Currently allocated     2.29E+00 Mbytes, locked:    0 /  10
[tb_pin] Currently allocated     0.00E+00 Mbytes, locked:    0 /   0

     iteration # 67     ecut=    70.00 Ry     beta= 0.40
     Davidson diagonalization with overlap

---- Real-time Memory Report at c_bands before calling an iterative solver
          2120 MiB given to the printing process from OS
          1222 MiB allocation reported by mallinfo(arena+hblkhd)
         36064 MiB available memory on the node where the printing process lives
     GPU memory used/free/total (MiB): 1462 / 14818 / 16280
------------------
     ethr =  2.18E-08,  avg # of iterations =  7.3

     total cpu time spent up to now is      473.8 secs

     total energy              =    -908.22872878 Ry
     estimated scf accuracy    <       0.00024826 Ry

     total magnetization       =     5.01 Bohr mag/cell
     absolute magnetization    =     5.30 Bohr mag/cell
[tb_dev] Currently allocated     2.29E+00 Mbytes, locked:    0 /  10
[tb_pin] Currently allocated     0.00E+00 Mbytes, locked:    0 /   0

     iteration # 68     ecut=    70.00 Ry     beta= 0.40
     Davidson diagonalization with overlap

---- Real-time Memory Report at c_bands before calling an iterative solver
          2122 MiB given to the printing process from OS
          1224 MiB allocation reported by mallinfo(arena+hblkhd)
         36064 MiB available memory on the node where the printing process lives
     GPU memory used/free/total (MiB): 1462 / 14818 / 16280
------------------
     ethr =  2.18E-08,  avg # of iterations =  1.1

     total cpu time spent up to now is      477.6 secs

     total energy              =    -908.22744005 Ry
     estimated scf accuracy    <       0.00023899 Ry

     total magnetization       =     5.02 Bohr mag/cell
     absolute magnetization    =     5.30 Bohr mag/cell
[tb_dev] Currently allocated     2.29E+00 Mbytes, locked:    0 /  10
[tb_pin] Currently allocated     0.00E+00 Mbytes, locked:    0 /   0

     iteration # 69     ecut=    70.00 Ry     beta= 0.40
     Davidson diagonalization with overlap

---- Real-time Memory Report at c_bands before calling an iterative solver
          2125 MiB given to the printing process from OS
          1226 MiB allocation reported by mallinfo(arena+hblkhd)
         36062 MiB available memory on the node where the printing process lives
     GPU memory used/free/total (MiB): 1462 / 14818 / 16280
------------------
     ethr =  2.18E-08,  avg # of iterations =  8.7

     total cpu time spent up to now is      487.6 secs

     total energy              =    -908.22624130 Ry
     estimated scf accuracy    <       0.00003864 Ry

     total magnetization       =     5.36 Bohr mag/cell
     absolute magnetization    =     5.65 Bohr mag/cell
[tb_dev] Currently allocated     2.29E+00 Mbytes, locked:    0 /  10
[tb_pin] Currently allocated     0.00E+00 Mbytes, locked:    0 /   0

     iteration # 70     ecut=    70.00 Ry     beta= 0.40
     Davidson diagonalization with overlap

---- Real-time Memory Report at c_bands before calling an iterative solver
          2126 MiB given to the printing process from OS
          1228 MiB allocation reported by mallinfo(arena+hblkhd)
         36035 MiB available memory on the node where the printing process lives
     GPU memory used/free/total (MiB): 1462 / 14818 / 16280
------------------
     c_bands:  1 eigenvalues not converged
     c_bands:  1 eigenvalues not converged
     ethr =  2.18E-08,  avg # of iterations = 11.5

     total cpu time spent up to now is      499.8 secs

     total energy              =    -908.22740028 Ry
     estimated scf accuracy    <       0.00006315 Ry

     total magnetization       =     5.76 Bohr mag/cell
     absolute magnetization    =     6.06 Bohr mag/cell
[tb_dev] Currently allocated     2.29E+00 Mbytes, locked:    0 /  10
[tb_pin] Currently allocated     0.00E+00 Mbytes, locked:    0 /   0

     iteration # 71     ecut=    70.00 Ry     beta= 0.40
     Davidson diagonalization with overlap

---- Real-time Memory Report at c_bands before calling an iterative solver
          2128 MiB given to the printing process from OS
          1230 MiB allocation reported by mallinfo(arena+hblkhd)
         36045 MiB available memory on the node where the printing process lives
     GPU memory used/free/total (MiB): 1462 / 14818 / 16280
------------------
     ethr =  2.18E-08,  avg # of iterations =  8.6

     total cpu time spent up to now is      509.6 secs

     total energy              =    -908.22684091 Ry
     estimated scf accuracy    <       0.00027999 Ry

     total magnetization       =     5.88 Bohr mag/cell
     absolute magnetization    =     6.20 Bohr mag/cell
[tb_dev] Currently allocated     2.29E+00 Mbytes, locked:    0 /  10
[tb_pin] Currently allocated     0.00E+00 Mbytes, locked:    0 /   0

     iteration # 72     ecut=    70.00 Ry     beta= 0.40
     Davidson diagonalization with overlap

---- Real-time Memory Report at c_bands before calling an iterative solver
          2131 MiB given to the printing process from OS
          1232 MiB allocation reported by mallinfo(arena+hblkhd)
         36047 MiB available memory on the node where the printing process lives
     GPU memory used/free/total (MiB): 1462 / 14818 / 16280
------------------
     c_bands:  1 eigenvalues not converged
     ethr =  2.18E-08,  avg # of iterations = 11.0

     total cpu time spent up to now is      521.4 secs

     total energy              =    -908.22823428 Ry
     estimated scf accuracy    <       0.00001998 Ry

     total magnetization       =     5.58 Bohr mag/cell
     absolute magnetization    =     5.87 Bohr mag/cell
[tb_dev] Currently allocated     2.29E+00 Mbytes, locked:    0 /  10
[tb_pin] Currently allocated     0.00E+00 Mbytes, locked:    0 /   0

     iteration # 73     ecut=    70.00 Ry     beta= 0.40
     Davidson diagonalization with overlap

---- Real-time Memory Report at c_bands before calling an iterative solver
          2132 MiB given to the printing process from OS
          1234 MiB allocation reported by mallinfo(arena+hblkhd)
         36045 MiB available memory on the node where the printing process lives
     GPU memory used/free/total (MiB): 1462 / 14818 / 16280
------------------
     ethr =  2.18E-08,  avg # of iterations =  5.3

     total cpu time spent up to now is      528.4 secs

     total energy              =    -908.22812872 Ry
     estimated scf accuracy    <       0.00002012 Ry

     total magnetization       =     5.53 Bohr mag/cell
     absolute magnetization    =     5.82 Bohr mag/cell
[tb_dev] Currently allocated     2.29E+00 Mbytes, locked:    0 /  10
[tb_pin] Currently allocated     0.00E+00 Mbytes, locked:    0 /   0

     iteration # 74     ecut=    70.00 Ry     beta= 0.40
     Davidson diagonalization with overlap

---- Real-time Memory Report at c_bands before calling an iterative solver
          2134 MiB given to the printing process from OS
          1236 MiB allocation reported by mallinfo(arena+hblkhd)
         36044 MiB available memory on the node where the printing process lives
     GPU memory used/free/total (MiB): 1462 / 14818 / 16280
------------------
     ethr =  2.18E-08,  avg # of iterations =  8.7

     total cpu time spent up to now is      538.0 secs

     total energy              =    -908.22829282 Ry
     estimated scf accuracy    <       0.00003822 Ry

     total magnetization       =     5.37 Bohr mag/cell
     absolute magnetization    =     5.65 Bohr mag/cell
[tb_dev] Currently allocated     2.29E+00 Mbytes, locked:    0 /  10
[tb_pin] Currently allocated     0.00E+00 Mbytes, locked:    0 /   0

     iteration # 75     ecut=    70.00 Ry     beta= 0.40
     Davidson diagonalization with overlap

---- Real-time Memory Report at c_bands before calling an iterative solver
          2137 MiB given to the printing process from OS
          1238 MiB allocation reported by mallinfo(arena+hblkhd)
         36039 MiB available memory on the node where the printing process lives
     GPU memory used/free/total (MiB): 1462 / 14818 / 16280
------------------
     ethr =  2.18E-08,  avg # of iterations =  7.4

     total cpu time spent up to now is      546.5 secs

     total energy              =    -908.22851004 Ry
     estimated scf accuracy    <       0.00009379 Ry

     total magnetization       =     5.21 Bohr mag/cell
     absolute magnetization    =     5.50 Bohr mag/cell
[tb_dev] Currently allocated     2.29E+00 Mbytes, locked:    0 /  10
[tb_pin] Currently allocated     0.00E+00 Mbytes, locked:    0 /   0

     iteration # 76     ecut=    70.00 Ry     beta= 0.40
     Davidson diagonalization with overlap

---- Real-time Memory Report at c_bands before calling an iterative solver
          2140 MiB given to the printing process from OS
          1240 MiB allocation reported by mallinfo(arena+hblkhd)
         36042 MiB available memory on the node where the printing process lives
     GPU memory used/free/total (MiB): 1462 / 14818 / 16280
------------------
     ethr =  2.18E-08,  avg # of iterations =  7.5

     total cpu time spent up to now is      555.2 secs

     total energy              =    -908.22862263 Ry
     estimated scf accuracy    <       0.00019038 Ry

     total magnetization       =     5.07 Bohr mag/cell
     absolute magnetization    =     5.35 Bohr mag/cell
[tb_dev] Currently allocated     2.29E+00 Mbytes, locked:    0 /  10
[tb_pin] Currently allocated     0.00E+00 Mbytes, locked:    0 /   0

     iteration # 77     ecut=    70.00 Ry     beta= 0.40
     Davidson diagonalization with overlap

---- Real-time Memory Report at c_bands before calling an iterative solver
          2141 MiB given to the printing process from OS
          1242 MiB allocation reported by mallinfo(arena+hblkhd)
         36037 MiB available memory on the node where the printing process lives
     GPU memory used/free/total (MiB): 1462 / 14818 / 16280
------------------
     ethr =  2.18E-08,  avg # of iterations =  1.9

     total cpu time spent up to now is      559.4 secs

     total energy              =    -908.22825392 Ry
     estimated scf accuracy    <       0.00017169 Ry

     total magnetization       =     5.09 Bohr mag/cell
     absolute magnetization    =     5.38 Bohr mag/cell
[tb_dev] Currently allocated     2.29E+00 Mbytes, locked:    0 /  10
[tb_pin] Currently allocated     0.00E+00 Mbytes, locked:    0 /   0

     iteration # 78     ecut=    70.00 Ry     beta= 0.40
     Davidson diagonalization with overlap

---- Real-time Memory Report at c_bands before calling an iterative solver
          2143 MiB given to the printing process from OS
          1244 MiB allocation reported by mallinfo(arena+hblkhd)
         36036 MiB available memory on the node where the printing process lives
     GPU memory used/free/total (MiB): 1462 / 14818 / 16280
------------------
     ethr =  2.18E-08,  avg # of iterations =  6.9

     total cpu time spent up to now is      567.7 secs

     total energy              =    -908.22845918 Ry
     estimated scf accuracy    <       0.00007337 Ry

     total magnetization       =     5.25 Bohr mag/cell
     absolute magnetization    =     5.54 Bohr mag/cell
[tb_dev] Currently allocated     2.29E+00 Mbytes, locked:    0 /  10
[tb_pin] Currently allocated     0.00E+00 Mbytes, locked:    0 /   0

     iteration # 79     ecut=    70.00 Ry     beta= 0.40
     Davidson diagonalization with overlap

---- Real-time Memory Report at c_bands before calling an iterative solver
          2146 MiB given to the printing process from OS
          1246 MiB allocation reported by mallinfo(arena+hblkhd)
         36036 MiB available memory on the node where the printing process lives
     GPU memory used/free/total (MiB): 1462 / 14818 / 16280
------------------
     ethr =  2.18E-08,  avg # of iterations =  1.0

     total cpu time spent up to now is      571.4 secs

     total energy              =    -908.22849010 Ry
     estimated scf accuracy    <       0.00007785 Ry

     total magnetization       =     5.24 Bohr mag/cell
     absolute magnetization    =     5.53 Bohr mag/cell
[tb_dev] Currently allocated     2.29E+00 Mbytes, locked:    0 /  10
[tb_pin] Currently allocated     0.00E+00 Mbytes, locked:    0 /   0

     iteration # 80     ecut=    70.00 Ry     beta= 0.40
     Davidson diagonalization with overlap

---- Real-time Memory Report at c_bands before calling an iterative solver
          2148 MiB given to the printing process from OS
          1248 MiB allocation reported by mallinfo(arena+hblkhd)
         36033 MiB available memory on the node where the printing process lives
     GPU memory used/free/total (MiB): 1462 / 14818 / 16280
------------------
     ethr =  2.18E-08,  avg # of iterations =  4.3

     total cpu time spent up to now is      577.2 secs

     total energy              =    -908.22525436 Ry
     estimated scf accuracy    <       0.00010511 Ry

     total magnetization       =     5.19 Bohr mag/cell
     absolute magnetization    =     5.48 Bohr mag/cell

     End of self-consistent calculation

     convergence NOT achieved after  80 iterations: stopping

     Writing config to output data dir ./out/aiida.save/
 
     init_run     :     21.27s CPU      5.41s WALL (       1 calls)
     electrons    :    977.07s CPU    571.39s WALL (       1 calls)

     Called by init_run:
     wfcinit      :      2.08s CPU      3.02s WALL (       1 calls)
                                        3.02s GPU  (       1 calls)
     wfcinit:atom :      0.05s CPU      0.11s WALL (     168 calls)
                                        0.11s GPU  (     168 calls)
     wfcinit:wfcr :      1.33s CPU      1.93s WALL (     168 calls)
                                        1.93s GPU  (     168 calls)
     potinit      :      7.66s CPU      0.75s WALL (       1 calls)
     hinit0       :      6.96s CPU      0.99s WALL (       1 calls)

     Called by electrons:
     c_bands      :    551.91s CPU    488.63s WALL (      80 calls)
     sum_band     :     41.32s CPU     47.59s WALL (      80 calls)
     v_of_rho     :     25.00s CPU      2.26s WALL (      81 calls)
     v_h          :      3.39s CPU      0.30s WALL (      81 calls)
     v_xc         :     21.61s CPU      1.95s WALL (      81 calls)
     newd         :     33.35s CPU      3.32s WALL (      81 calls)
                                        3.31s GPU  (      81 calls)
     PAW_pot      :    307.34s CPU     27.88s WALL (      81 calls)
     mix_rho      :     16.14s CPU      1.57s WALL (      80 calls)

     Called by c_bands:
     init_us_2    :     26.14s CPU     25.13s WALL (   27048 calls)
     init_us_2:gp :     25.62s CPU     24.68s WALL (   27048 calls)
     cegterg      :    510.09s CPU    454.26s WALL (   13440 calls)

     Called by sum_band:
     sum_band:wei :      0.46s CPU      0.47s WALL (      80 calls)
                                        0.47s GPU  (      80 calls)
     sum_band:loo :     36.07s CPU     42.18s WALL (      80 calls)
                                       42.18s GPU  (      80 calls)
     sum_band:buf :      6.52s CPU      7.61s WALL (   13440 calls)
                                        7.53s GPU  (   13440 calls)
     sum_band:ini :      9.86s CPU     12.17s WALL (   13440 calls)
                                       12.10s GPU  (   13440 calls)
     sum_band:cal :      0.42s CPU      1.20s WALL (   13440 calls)
                                        1.05s GPU  (   13440 calls)
     sum_band:bec :      1.82s CPU      2.25s WALL (   13440 calls)
                                        2.16s GPU  (   13440 calls)
     addusdens    :      3.36s CPU      3.47s WALL (      80 calls)
                                        3.47s GPU  (      80 calls)
     addusd:skk   :      0.01s CPU      0.01s WALL (     160 calls)
                                        0.01s GPU  (     160 calls)

     Called by *egterg:
     cdiaghg      :    263.09s CPU    245.41s WALL (   87763 calls)
                                      244.83s GPU  (   87763 calls)
     cegterg:over :     11.24s CPU      9.97s WALL (   74323 calls)
     cegterg:upda :     21.98s CPU     19.19s WALL (   74323 calls)
     cegterg:last :      5.88s CPU      5.10s WALL (   33188 calls)
     h_psi        :    167.62s CPU    142.19s WALL (   87931 calls)
                                      141.72s GPU  (   87931 calls)
     s_psi        :      8.58s CPU     11.44s WALL (   87931 calls)
                                       10.69s GPU  (   87931 calls)
     g_psi        :      0.62s CPU      1.62s WALL (   74323 calls)
                                        1.14s GPU  (   74323 calls)

     Called by h_psi:
     h_psi:calbec :      3.40s CPU      8.24s WALL (   87931 calls)
                                        7.71s GPU  (   87931 calls)
     vloc_psi     :    136.75s CPU    115.99s WALL (   87931 calls)
                                      115.48s GPU  (   87931 calls)
     add_vuspsi   :     11.19s CPU     12.48s WALL (   87931 calls)
                                       11.96s GPU  (   87931 calls)

     General routines
     calbec       :      2.86s CPU      2.54s WALL (  101371 calls)
     fft          :      2.45s CPU      0.43s WALL (    2023 calls)
                                        0.36s GPU  (    1861 calls)
     ffts         :      0.05s CPU      0.03s WALL (     322 calls)
                                        0.01s GPU  (     160 calls)
     fftw         :      7.87s CPU     77.47s WALL (  336332 calls)
                                       75.61s GPU  (  336332 calls)
     interpolate  :      2.60s CPU      0.23s WALL (     162 calls)
     davcio       :      0.03s CPU      0.21s WALL (     186 calls)
 
     Parallel routines

     PAW routines
     PAW_pot      :    307.34s CPU     27.88s WALL (      81 calls)
     PAW_symme    :      0.71s CPU      0.12s WALL (     161 calls)
 
     PWSCF        :  16m40.94s CPU   9m37.75s WALL

 
   This run was terminated on:  22:13:54  22Oct2023            

=------------------------------------------------------------------------------=
   JOB DONE.
=------------------------------------------------------------------------------=
