
     Program PWSCF v.7.2 starts on 28Nov2023 at 19:27:33 
        Git branch: develop
        Last git commit: 9055681be6fc8200e6fffe76ed5fda34c2696339
        Last git commit date: Wed Nov 8 16:29:39 2023 +0000
        Last git commit subject: Merge branch 'calbec_fix' into 'develop'

     This program is part of the open-source Quantum ESPRESSO suite
     for quantum simulation of materials; please cite
         "P. Giannozzi et al., J. Phys.:Condens. Matter 21 395502 (2009);
         "P. Giannozzi et al., J. Phys.:Condens. Matter 29 465901 (2017);
         "P. Giannozzi et al., J. Chem. Phys. 152 154105 (2020);
          URL http://www.quantum-espresso.org", 
     in publications or presentations arising from this work. More details at
     http://www.quantum-espresso.org/quote

     Parallel version (MPI), running on    56 processors

     MPI processes distributed on     1 nodes
     489249 MiB available memory on the printing compute node when the environment starts

     Reading input from aiida.in

     Current dimensions of program PWSCF are:
     Max number of different atomic species (ntypx) = 10
     Max number of k-points (npk) =  40000
     Max angular momentum in pseudopotentials (lmaxx) =  4
     file Ba.pbesol-spn-kjpaw_psl.1.0.0.UPF: wavefunction(s)  5S 6S renormalized
     file Nb.pbesol-spn-kjpaw_psl.0.3.0.UPF: wavefunction(s)  4S 4P renormalized
     file O.pbesol-n-kjpaw_psl.0.1.UPF: wavefunction(s)  2P renormalized
     Message from routine setup:
     using ibrav=0 with symmetry is DISCOURAGED, use correct ibrav instead

     K-points division:     npool     =       8
     R & G space division:  proc/nbgrp/npool/nimage =       7
     Subspace diagonalization in iterative solution of the eigenvalue problem:
     a serial algorithm will be used


     Parallelization info
     --------------------
     sticks:   dense  smooth     PW     G-vecs:    dense   smooth      PW
     Min         650     325    113                17163     6073    1269
     Max         651     326    114                17164     6074    1270
     Sum        4551    2277    797               120147    42513    8885

     Using Slab Decomposition



     bravais-lattice index     =            0
     lattice parameter (alat)  =      12.6669  a.u.
     unit-cell volume          =     889.9875 (a.u.)^3
     number of atoms/cell      =           10
     number of atomic types    =            3
     number of electrons       =        85.00
     number of Kohn-Sham states=           52
     kinetic-energy cutoff     =      50.0000  Ry
     charge density cutoff     =     400.0000  Ry
     scf convergence threshold =      2.0E-09
     mixing beta               =       0.4000
     number of iterations used =            8  plain     mixing
     Exchange-correlation= SLA  PW   PSX  PSC
                           (   1   4  10   8   0   0   0)

     celldm(1)=  12.666889  celldm(2)=   0.000000  celldm(3)=   0.000000
     celldm(4)=   0.000000  celldm(5)=   0.000000  celldm(6)=   0.000000

     crystal axes: (cart. coord. in units of alat)
               a(1) = (   0.852846   0.492391   0.173797 )  
               a(2) = (  -0.852846   0.492391   0.173797 )  
               a(3) = (  -0.000000  -0.984781   0.173797 )  

     reciprocal axes: (cart. coord. in units 2 pi/alat)
               b(1) = (  0.586272  0.338485  1.917946 )  
               b(2) = ( -0.586272  0.338485  1.917946 )  
               b(3) = ( -0.000000 -0.676969  1.917946 )  


     PseudoPot. # 1 for Ba read from file:
     ./pseudo/Ba.pbesol-spn-kjpaw_psl.1.0.0.UPF
     MD5 check sum: f28c4a63d325c1a0d00fd3a4f19b8d73
     Pseudo is Projector augmented-wave + core cor, Zval = 10.0
     Generated using "atomic" code by A. Dal Corso  v.6.0 svn rev. 13079
     Shape of augmentation charge: PSQ
     Using radial grid of 1251 points,  7 beta functions with: 
                l(1) =   0
                l(2) =   0
                l(3) =   0
                l(4) =   1
                l(5) =   1
                l(6) =   2
                l(7) =   2
     Q(r) pseudized with 0 coefficients 


     PseudoPot. # 2 for Nb read from file:
     ./pseudo/Nb.pbesol-spn-kjpaw_psl.0.3.0.UPF
     MD5 check sum: 3501bca1474143575298708b2d32ca28
     Pseudo is Projector augmented-wave + core cor, Zval = 13.0
     Generated using "atomic" code by A. Dal Corso  v.6.0 svn rev. 13079
     Shape of augmentation charge: PSQ
     Using radial grid of 1227 points,  6 beta functions with: 
                l(1) =   0
                l(2) =   0
                l(3) =   1
                l(4) =   1
                l(5) =   2
                l(6) =   2
     Q(r) pseudized with 0 coefficients 


     PseudoPot. # 3 for O  read from file:
     ./pseudo/O.pbesol-n-kjpaw_psl.0.1.UPF
     MD5 check sum: 81d73d1479e654e5638b0319f0d6c2c7
     Pseudo is Projector augmented-wave + core cor, Zval =  6.0
     Generated using "atomic" code by A. Dal Corso  v.6.0 svn rev. 13079
     Shape of augmentation charge: BESSEL
     Using radial grid of 1095 points,  4 beta functions with: 
                l(1) =   0
                l(2) =   0
                l(3) =   1
                l(4) =   1
     Q(r) pseudized with 0 coefficients 


     atomic species   valence    mass     pseudopotential
     Ba               10.00   137.32700     Ba( 1.00)
     Nb               13.00    92.90638     Nb( 1.00)
     O                 6.00    15.99940     O ( 1.00)

     Starting magnetic structure 
     atomic species   magnetization
     Ba              0.100
     Nb              0.385
     O               0.100

      6 Sym. Ops. (no inversion) found


                                    s                        frac. trans.

      isym =  1     identity                                     

 cryst.   s( 1) = (     1          0          0      )
                  (     0          1          0      )
                  (     0          0          1      )

 cart.    s( 1) = (  1.0000000 -0.0000000 -0.0000000 )
                  ( -0.0000000  1.0000000  0.0000000 )
                  (  0.0000000  0.0000000  1.0000000 )


      isym =  2     120 deg rotation - cryst. axis [0,0,1]       

 cryst.   s( 2) = (     0          1          0      )
                  (     0          0          1      )
                  (     1          0          0      )

 cart.    s( 2) = ( -0.5000000 -0.8660254  0.0000000 )
                  (  0.8660254 -0.5000000  0.0000000 )
                  (  0.0000000 -0.0000000  1.0000000 )


      isym =  3     120 deg rotation - cryst. axis [0,0,-1]      

 cryst.   s( 3) = (     0          0          1      )
                  (     1          0          0      )
                  (     0          1          0      )

 cart.    s( 3) = ( -0.5000000  0.8660254 -0.0000000 )
                  ( -0.8660254 -0.5000000  0.0000000 )
                  ( -0.0000000  0.0000000  1.0000000 )


      isym =  4     inv. 180 deg rotation - cart. axis [1,0,0]   

 cryst.   s( 4) = (     0          1          0      )
                  (     1          0          0      )
                  (     0          0          1      )

 cart.    s( 4) = ( -1.0000000 -0.0000000 -0.0000000 )
                  (  0.0000000  1.0000000  0.0000000 )
                  ( -0.0000000  0.0000000  1.0000000 )


      isym =  5     inv. 180 deg rotation - cryst. axis [0,1,0]  

 cryst.   s( 5) = (     1          0          0      )
                  (     0          0          1      )
                  (     0          1          0      )

 cart.    s( 5) = (  0.5000000  0.8660254 -0.0000000 )
                  (  0.8660254 -0.5000000  0.0000000 )
                  (  0.0000000  0.0000000  1.0000000 )


      isym =  6     inv. 180 deg rotation - cryst. axis [1,1,0]  

 cryst.   s( 6) = (     0          0          1      )
                  (     0          1          0      )
                  (     1          0          0      )

 cart.    s( 6) = (  0.5000000 -0.8660254  0.0000000 )
                  ( -0.8660254 -0.5000000  0.0000000 )
                  ( -0.0000000 -0.0000000  1.0000000 )


   Cartesian axes

     site n.     atom                  positions (alat units)
         1        Ba     tau(   1) = (   0.0000000   0.0000000  -0.0000000  )
         2        Nb     tau(   2) = (  -0.0000000   0.4822475   0.1751179  )
         3        Nb     tau(   3) = (  -0.4352072   1.2360485   0.1751179  )
         4        Nb     tau(   4) = (   0.4352072   0.2512670   0.3489150  )
         5        O      tau(   5) = (  -0.2225075   1.3338373   0.3412331  )
         6        O      tau(   6) = (   0.2225075   0.3490558   0.5150302  )
         7        O      tau(   7) = (   0.1910375   0.6175565   0.3412331  )
         8        O      tau(   8) = (   0.6618083   0.1251657   0.1674361  )
         9        O      tau(   9) = (   0.4393009   0.5105600   0.1674361  )
        10        O      tau(  10) = (   0.4135449   0.0181692   0.5150302  )

   Crystallographic axes

     site n.     atom                  positions (cryst. coord.)
         1        Ba     tau(   1) = (  0.0000000  0.0000000 -0.0000000  )
         2        Nb     tau(   2) = (  0.4991000  0.4991000  0.0094000  )
         3        Nb     tau(   3) = (  0.4991000  1.0094000 -0.5009000  )
         4        Nb     tau(   4) = (  1.0094000  0.4991000  0.4991000  )
         5        O      tau(   5) = (  0.9755000  1.2364000 -0.2485000  )
         6        O      tau(   6) = (  1.2364000  0.9755000  0.7515000  )
         7        O      tau(   7) = (  0.9755000  0.7515000  0.2364000  )
         8        O      tau(   8) = (  0.7515000 -0.0245000  0.2364000  )
         9        O      tau(   9) = (  0.7515000  0.2364000 -0.0245000  )
        10        O      tau(  10) = (  1.2364000  0.7515000  0.9755000  )

     number of k points=   231  Marzari-Vanderbilt smearing, width (Ry)=  0.0200
                       cart. coord. in units 2pi/alat
        k(    1) = (   0.0000000   0.0000000   0.0000000), wk =   0.0004552
        k(    2) = (  -0.0000000  -0.0520745   0.1475343), wk =   0.0027310
        k(    3) = (  -0.0000000  -0.1041491   0.2950686), wk =   0.0027310
        k(    4) = (  -0.0000000  -0.1562236   0.4426029), wk =   0.0027310
        k(    5) = (  -0.0000000  -0.2082982   0.5901372), wk =   0.0027310
        k(    6) = (  -0.0000000  -0.2603727   0.7376715), wk =   0.0027310
        k(    7) = (  -0.0000000  -0.3124473   0.8852058), wk =   0.0027310
        k(    8) = (  -0.0450979  -0.0260373   0.2950686), wk =   0.0027310
        k(    9) = (  -0.0450979  -0.0781118   0.4426029), wk =   0.0054620
        k(   10) = (  -0.0450979  -0.1301864   0.5901372), wk =   0.0054620
        k(   11) = (  -0.0450979  -0.1822609   0.7376715), wk =   0.0054620
        k(   12) = (  -0.0450979  -0.2343355   0.8852058), wk =   0.0054620
        k(   13) = (  -0.0450979  -0.2864100   1.0327401), wk =   0.0054620
        k(   14) = (  -0.0450979   0.3384846  -0.7376715), wk =   0.0054620
        k(   15) = (  -0.0450979   0.2864100  -0.5901372), wk =   0.0054620
        k(   16) = (  -0.0450979   0.2343355  -0.4426029), wk =   0.0054620
        k(   17) = (  -0.0450979   0.1822609  -0.2950686), wk =   0.0054620
        k(   18) = (  -0.0450979   0.1301864  -0.1475343), wk =   0.0054620
        k(   19) = (  -0.0450979   0.0781118  -0.0000000), wk =   0.0027310
        k(   20) = (  -0.0901958  -0.0520745   0.5901372), wk =   0.0027310
        k(   21) = (  -0.0901958  -0.1041491   0.7376715), wk =   0.0054620
        k(   22) = (  -0.0901958  -0.1562236   0.8852058), wk =   0.0054620
        k(   23) = (  -0.0901958  -0.2082982   1.0327401), wk =   0.0054620
        k(   24) = (  -0.0901958  -0.2603727   1.1802744), wk =   0.0054620
        k(   25) = (  -0.0901958   0.3645218  -0.5901372), wk =   0.0054620
        k(   26) = (  -0.0901958   0.3124473  -0.4426029), wk =   0.0054620
        k(   27) = (  -0.0901958   0.2603727  -0.2950686), wk =   0.0054620
        k(   28) = (  -0.0901958   0.2082982  -0.1475343), wk =   0.0054620
        k(   29) = (  -0.0901958   0.1562236  -0.0000000), wk =   0.0027310
        k(   30) = (  -0.1352936  -0.0781118   0.8852058), wk =   0.0027310
        k(   31) = (  -0.1352936  -0.1301864   1.0327401), wk =   0.0054620
        k(   32) = (  -0.1352936  -0.1822609   1.1802744), wk =   0.0054620
        k(   33) = (  -0.1352936  -0.2343355   1.3278087), wk =   0.0054620
        k(   34) = (  -0.1352936   0.3905591  -0.4426029), wk =   0.0054620
        k(   35) = (  -0.1352936   0.3384846  -0.2950686), wk =   0.0054620
        k(   36) = (  -0.1352936   0.2864100  -0.1475343), wk =   0.0054620
        k(   37) = (  -0.1352936   0.2343355  -0.0000000), wk =   0.0027310
        k(   38) = (  -0.1803915  -0.1041491   1.1802744), wk =   0.0027310
        k(   39) = (  -0.1803915  -0.1562236   1.3278087), wk =   0.0054620
        k(   40) = (  -0.1803915  -0.2082982   1.4753430), wk =   0.0054620
        k(   41) = (  -0.1803915   0.4165964  -0.2950686), wk =   0.0054620
        k(   42) = (  -0.1803915   0.3645218  -0.1475343), wk =   0.0054620
        k(   43) = (  -0.1803915   0.3124473  -0.0000000), wk =   0.0027310
        k(   44) = (  -0.2254894  -0.1301864   1.4753430), wk =   0.0027310
        k(   45) = (  -0.2254894  -0.1822609   1.6228773), wk =   0.0054620
        k(   46) = (  -0.2254894   0.4426337  -0.1475343), wk =   0.0054620
        k(   47) = (  -0.2254894   0.3905591  -0.0000000), wk =   0.0027310
        k(   48) = (  -0.2705873  -0.1562236   1.7704116), wk =   0.0027310
        k(   49) = (  -0.2705873   0.4686709  -0.0000000), wk =   0.0027310
        k(   50) = (   0.0000000   0.0000000   0.4426029), wk =   0.0009103
        k(   51) = (   0.0000000  -0.0520745   0.5901372), wk =   0.0027310
        k(   52) = (   0.0000000  -0.1041491   0.7376715), wk =   0.0027310
        k(   53) = (   0.0000000  -0.1562236   0.8852058), wk =   0.0027310
        k(   54) = (   0.0000000  -0.2082982   1.0327401), wk =   0.0027310
        k(   55) = (  -0.0000000  -0.2603727   1.1802744), wk =   0.0027310
        k(   56) = (   0.0000000   0.3645218  -0.5901372), wk =   0.0027310
        k(   57) = (   0.0000000   0.3124473  -0.4426029), wk =   0.0027310
        k(   58) = (   0.0000000   0.2603727  -0.2950686), wk =   0.0027310
        k(   59) = (   0.0000000   0.2082982  -0.1475343), wk =   0.0027310
        k(   60) = (   0.0000000   0.1562236  -0.0000000), wk =   0.0027310
        k(   61) = (   0.0000000   0.1041491   0.1475343), wk =   0.0027310
        k(   62) = (  -0.0450979  -0.0260373   0.7376715), wk =   0.0027310
        k(   63) = (  -0.0450979  -0.0781118   0.8852058), wk =   0.0054620
        k(   64) = (  -0.0450979  -0.1301864   1.0327401), wk =   0.0054620
        k(   65) = (  -0.0450979  -0.1822609   1.1802744), wk =   0.0054620
        k(   66) = (  -0.0450979  -0.2343355   1.3278087), wk =   0.0054620
        k(   67) = (  -0.0450979   0.3905591  -0.4426029), wk =   0.0054620
        k(   68) = (  -0.0450979   0.3384846  -0.2950686), wk =   0.0054620
        k(   69) = (  -0.0450979   0.2864100  -0.1475343), wk =   0.0054620
        k(   70) = (  -0.0450979   0.2343355  -0.0000000), wk =   0.0054620
        k(   71) = (  -0.0450979   0.1822609   0.1475343), wk =   0.0054620
        k(   72) = (  -0.0450979   0.1301864   0.2950686), wk =   0.0054620
        k(   73) = (  -0.0901958  -0.0520745   1.0327401), wk =   0.0027310
        k(   74) = (  -0.0901958  -0.1041491   1.1802744), wk =   0.0054620
        k(   75) = (  -0.0901958  -0.1562236   1.3278087), wk =   0.0054620
        k(   76) = (  -0.0901958  -0.2082982   1.4753430), wk =   0.0054620
        k(   77) = (  -0.0901958   0.4165964  -0.2950686), wk =   0.0054620
        k(   78) = (  -0.0901958   0.3645218  -0.1475343), wk =   0.0054620
        k(   79) = (  -0.0901958   0.3124473  -0.0000000), wk =   0.0054620
        k(   80) = (  -0.0901958   0.2603727   0.1475343), wk =   0.0054620
        k(   81) = (  -0.0901958   0.2082982   0.2950686), wk =   0.0054620
        k(   82) = (  -0.0901958   0.1562236   0.4426029), wk =   0.0054620
        k(   83) = (  -0.1352936  -0.0781118   1.3278087), wk =   0.0027310
        k(   84) = (  -0.1352936  -0.1301864   1.4753430), wk =   0.0054620
        k(   85) = (  -0.1352936  -0.1822609   1.6228773), wk =   0.0054620
        k(   86) = (  -0.1352936   0.4426337  -0.1475343), wk =   0.0054620
        k(   87) = (  -0.1352936   0.3905591  -0.0000000), wk =   0.0054620
        k(   88) = (  -0.1352936   0.3384846   0.1475343), wk =   0.0054620
        k(   89) = (  -0.1352936   0.2864100   0.2950686), wk =   0.0054620
        k(   90) = (  -0.1352936   0.2343355   0.4426029), wk =   0.0054620
        k(   91) = (  -0.1352936   0.1822609   0.5901372), wk =   0.0054620
        k(   92) = (  -0.1803915  -0.1041491   1.6228773), wk =   0.0027310
        k(   93) = (  -0.1803915  -0.1562236   1.7704116), wk =   0.0054620
        k(   94) = (  -0.1803915   0.4686709  -0.0000000), wk =   0.0054620
        k(   95) = (  -0.1803915   0.4165964   0.1475343), wk =   0.0054620
        k(   96) = (  -0.1803915   0.3645218   0.2950686), wk =   0.0054620
        k(   97) = (  -0.1803915   0.3124473   0.4426029), wk =   0.0054620
        k(   98) = (  -0.1803915   0.2603727   0.5901372), wk =   0.0054620
        k(   99) = (  -0.1803915   0.2082982   0.7376715), wk =   0.0054620
        k(  100) = (  -0.2254894  -0.1301864   1.9179458), wk =   0.0027310
        k(  101) = (  -0.2254894   0.4947082   0.1475343), wk =   0.0054620
        k(  102) = (  -0.2254894   0.4426337   0.2950686), wk =   0.0054620
        k(  103) = (  -0.2254894   0.3905591   0.4426029), wk =   0.0054620
        k(  104) = (  -0.2254894   0.3384846   0.5901372), wk =   0.0054620
        k(  105) = (  -0.2254894   0.2864100   0.7376715), wk =   0.0054620
        k(  106) = (  -0.2254894   0.2343355   0.8852058), wk =   0.0054620
        k(  107) = (   0.3156852   0.1822609  -1.6228773), wk =   0.0027310
        k(  108) = (   0.3156852   0.1301864  -1.4753430), wk =   0.0054620
        k(  109) = (   0.3156852   0.0781118  -1.3278087), wk =   0.0054620
        k(  110) = (   0.3156852   0.0260373  -1.1802744), wk =   0.0054620
        k(  111) = (   0.3156852  -0.0260373  -1.0327401), wk =   0.0054620
        k(  112) = (   0.2705873   0.1562236  -1.3278087), wk =   0.0027310
        k(  113) = (   0.2705873   0.1041491  -1.1802744), wk =   0.0054620
        k(  114) = (   0.2705873   0.0520745  -1.0327401), wk =   0.0054620
        k(  115) = (   0.2705873   0.0000000  -0.8852058), wk =   0.0054620
        k(  116) = (   0.2254894   0.1301864  -1.0327401), wk =   0.0027310
        k(  117) = (   0.2254894   0.0781118  -0.8852058), wk =   0.0054620
        k(  118) = (   0.2254894   0.0260373  -0.7376715), wk =   0.0054620
        k(  119) = (   0.1803915   0.1041491  -0.7376715), wk =   0.0027310
        k(  120) = (   0.1803915   0.0520745  -0.5901372), wk =   0.0054620
        k(  121) = (   0.1352936   0.0781118  -0.4426029), wk =   0.0027310
        k(  122) = (   0.0000000   0.0000000   0.8852058), wk =   0.0009103
        k(  123) = (   0.0000000  -0.0520745   1.0327401), wk =   0.0027310
        k(  124) = (   0.0000000  -0.1041491   1.1802744), wk =   0.0027310
        k(  125) = (   0.0000000  -0.1562236   1.3278087), wk =   0.0027310
        k(  126) = (   0.0000000  -0.2082982   1.4753430), wk =   0.0027310
        k(  127) = (   0.0000000   0.4165964  -0.2950686), wk =   0.0027310
        k(  128) = (   0.0000000   0.3645218  -0.1475343), wk =   0.0027310
        k(  129) = (   0.0000000   0.3124473  -0.0000000), wk =   0.0027310
        k(  130) = (   0.0000000   0.2603727   0.1475343), wk =   0.0027310
        k(  131) = (   0.0000000   0.2082982   0.2950686), wk =   0.0027310
        k(  132) = (  -0.0450979  -0.0260373   1.1802744), wk =   0.0027310
        k(  133) = (  -0.0450979  -0.0781118   1.3278087), wk =   0.0054620
        k(  134) = (  -0.0450979  -0.1301864   1.4753430), wk =   0.0054620
        k(  135) = (  -0.0450979  -0.1822609   1.6228773), wk =   0.0054620
        k(  136) = (  -0.0450979   0.4426337  -0.1475343), wk =   0.0054620
        k(  137) = (  -0.0450979   0.3905591  -0.0000000), wk =   0.0054620
        k(  138) = (  -0.0450979   0.3384846   0.1475343), wk =   0.0054620
        k(  139) = (  -0.0450979   0.2864100   0.2950686), wk =   0.0054620
        k(  140) = (  -0.0450979   0.2343355   0.4426029), wk =   0.0054620
        k(  141) = (  -0.0901958  -0.0520745   1.4753430), wk =   0.0027310
        k(  142) = (  -0.0901958  -0.1041491   1.6228773), wk =   0.0054620
        k(  143) = (  -0.0901958  -0.1562236   1.7704116), wk =   0.0054620
        k(  144) = (  -0.0901958   0.4686709  -0.0000000), wk =   0.0054620
        k(  145) = (  -0.0901958   0.4165964   0.1475343), wk =   0.0054620
        k(  146) = (  -0.0901958   0.3645218   0.2950686), wk =   0.0054620
        k(  147) = (  -0.0901958   0.3124473   0.4426029), wk =   0.0054620
        k(  148) = (  -0.0901958   0.2603727   0.5901372), wk =   0.0054620
        k(  149) = (  -0.1352936  -0.0781118   1.7704116), wk =   0.0027310
        k(  150) = (  -0.1352936  -0.1301864   1.9179458), wk =   0.0054620
        k(  151) = (  -0.1352936   0.4947082   0.1475343), wk =   0.0054620
        k(  152) = (  -0.1352936   0.4426337   0.2950686), wk =   0.0054620
        k(  153) = (  -0.1352936   0.3905591   0.4426029), wk =   0.0054620
        k(  154) = (  -0.1352936   0.3384846   0.5901372), wk =   0.0054620
        k(  155) = (  -0.1352936   0.2864100   0.7376715), wk =   0.0054620
        k(  156) = (  -0.1803915  -0.1041491   2.0654801), wk =   0.0027310
        k(  157) = (  -0.1803915   0.5207455   0.2950686), wk =   0.0054620
        k(  158) = (  -0.1803915   0.4686709   0.4426029), wk =   0.0054620
        k(  159) = (  -0.1803915   0.4165964   0.5901372), wk =   0.0054620
        k(  160) = (  -0.1803915   0.3645218   0.7376715), wk =   0.0054620
        k(  161) = (  -0.1803915   0.3124473   0.8852058), wk =   0.0054620
        k(  162) = (   0.3607831   0.2082982  -1.4753430), wk =   0.0027310
        k(  163) = (   0.3607831   0.1562236  -1.3278087), wk =   0.0054620
        k(  164) = (   0.3607831   0.1041491  -1.1802744), wk =   0.0054620
        k(  165) = (   0.3607831   0.0520745  -1.0327401), wk =   0.0054620
        k(  166) = (   0.3156852   0.1822609  -1.1802744), wk =   0.0027310
        k(  167) = (   0.3156852   0.1301864  -1.0327401), wk =   0.0054620
        k(  168) = (   0.3156852   0.0781118  -0.8852058), wk =   0.0054620
        k(  169) = (   0.2705873   0.1562236  -0.8852058), wk =   0.0027310
        k(  170) = (   0.2705873   0.1041491  -0.7376715), wk =   0.0054620
        k(  171) = (   0.2254894   0.1301864  -0.5901372), wk =   0.0027310
        k(  172) = (  -0.0000000   0.0000000   1.3278087), wk =   0.0009103
        k(  173) = (  -0.0000000  -0.0520745   1.4753430), wk =   0.0027310
        k(  174) = (  -0.0000000  -0.1041491   1.6228773), wk =   0.0027310
        k(  175) = (  -0.0000000  -0.1562236   1.7704116), wk =   0.0027310
        k(  176) = (  -0.0000000   0.4686709  -0.0000000), wk =   0.0027310
        k(  177) = (  -0.0000000   0.4165964   0.1475343), wk =   0.0027310
        k(  178) = (  -0.0000000   0.3645218   0.2950686), wk =   0.0027310
        k(  179) = (  -0.0000000   0.3124473   0.4426029), wk =   0.0027310
        k(  180) = (  -0.0450979  -0.0260373   1.6228773), wk =   0.0027310
        k(  181) = (  -0.0450979  -0.0781118   1.7704116), wk =   0.0054620
        k(  182) = (  -0.0450979  -0.1301864   1.9179458), wk =   0.0054620
        k(  183) = (  -0.0450979   0.4947082   0.1475343), wk =   0.0054620
        k(  184) = (  -0.0450979   0.4426337   0.2950686), wk =   0.0054620
        k(  185) = (  -0.0450979   0.3905591   0.4426029), wk =   0.0054620
        k(  186) = (  -0.0450979   0.3384846   0.5901372), wk =   0.0054620
        k(  187) = (  -0.0901958  -0.0520745   1.9179458), wk =   0.0027310
        k(  188) = (  -0.0901958  -0.1041491   2.0654801), wk =   0.0054620
        k(  189) = (  -0.0901958   0.5207455   0.2950686), wk =   0.0054620
        k(  190) = (  -0.0901958   0.4686709   0.4426029), wk =   0.0054620
        k(  191) = (  -0.0901958   0.4165964   0.5901372), wk =   0.0054620
        k(  192) = (  -0.0901958   0.3645218   0.7376715), wk =   0.0054620
        k(  193) = (  -0.1352936  -0.0781118   2.2130144), wk =   0.0027310
        k(  194) = (  -0.1352936   0.5467828   0.4426029), wk =   0.0054620
        k(  195) = (  -0.1352936   0.4947082   0.5901372), wk =   0.0054620
        k(  196) = (  -0.1352936   0.4426337   0.7376715), wk =   0.0054620
        k(  197) = (  -0.1352936   0.3905591   0.8852058), wk =   0.0054620
        k(  198) = (   0.4058809   0.2343355  -1.3278087), wk =   0.0027310
        k(  199) = (   0.4058809   0.1822609  -1.1802744), wk =   0.0054620
        k(  200) = (   0.4058809   0.1301864  -1.0327401), wk =   0.0054620
        k(  201) = (   0.3607831   0.2082982  -1.0327401), wk =   0.0027310
        k(  202) = (   0.3607831   0.1562236  -0.8852058), wk =   0.0054620
        k(  203) = (   0.3156852   0.1822609  -0.7376715), wk =   0.0027310
        k(  204) = (   0.0000000   0.0000000   1.7704116), wk =   0.0009103
        k(  205) = (   0.0000000  -0.0520745   1.9179458), wk =   0.0027310
        k(  206) = (   0.0000000  -0.1041491   2.0654801), wk =   0.0027310
        k(  207) = (   0.0000000   0.5207455   0.2950686), wk =   0.0027310
        k(  208) = (   0.0000000   0.4686709   0.4426029), wk =   0.0027310
        k(  209) = (   0.0000000   0.4165964   0.5901372), wk =   0.0027310
        k(  210) = (  -0.0450979  -0.0260373   2.0654801), wk =   0.0027310
        k(  211) = (  -0.0450979  -0.0781118   2.2130144), wk =   0.0054620
        k(  212) = (  -0.0450979   0.5467828   0.4426029), wk =   0.0054620
        k(  213) = (  -0.0450979   0.4947082   0.5901372), wk =   0.0054620
        k(  214) = (  -0.0450979   0.4426337   0.7376715), wk =   0.0054620
        k(  215) = (  -0.0901958  -0.0520745   2.3605487), wk =   0.0027310
        k(  216) = (  -0.0901958   0.5728200   0.5901372), wk =   0.0054620
        k(  217) = (  -0.0901958   0.5207455   0.7376715), wk =   0.0054620
        k(  218) = (  -0.0901958   0.4686709   0.8852058), wk =   0.0054620
        k(  219) = (   0.4509788   0.2603727  -1.1802744), wk =   0.0027310
        k(  220) = (   0.4509788   0.2082982  -1.0327401), wk =   0.0054620
        k(  221) = (   0.4058809   0.2343355  -0.8852058), wk =   0.0027310
        k(  222) = (   0.0000000   0.0000000   2.2130144), wk =   0.0009103
        k(  223) = (   0.0000000  -0.0520745   2.3605487), wk =   0.0027310
        k(  224) = (   0.0000000   0.5728200   0.5901372), wk =   0.0027310
        k(  225) = (   0.0000000   0.5207455   0.7376715), wk =   0.0027310
        k(  226) = (  -0.0450979  -0.0260373   2.5080830), wk =   0.0027310
        k(  227) = (  -0.0450979   0.5988573   0.7376715), wk =   0.0054620
        k(  228) = (  -0.0450979   0.5467828   0.8852058), wk =   0.0054620
        k(  229) = (   0.4960767   0.2864100  -1.0327401), wk =   0.0027310
        k(  230) = (  -0.0000000   0.0000000   2.6556173), wk =   0.0009103
        k(  231) = (  -0.0000000   0.6248946   0.8852058), wk =   0.0027310

                       cryst. coord.
        k(    1) = (   0.0000000   0.0000000   0.0000000), wk =   0.0004552
        k(    2) = (   0.0000000   0.0000000   0.0769231), wk =   0.0027310
        k(    3) = (   0.0000000   0.0000000   0.1538462), wk =   0.0027310
        k(    4) = (  -0.0000000  -0.0000000   0.2307692), wk =   0.0027310
        k(    5) = (   0.0000000   0.0000000   0.3076923), wk =   0.0027310
        k(    6) = (  -0.0000000  -0.0000000   0.3846154), wk =   0.0027310
        k(    7) = (  -0.0000000  -0.0000000   0.4615385), wk =   0.0027310
        k(    8) = (   0.0000000   0.0769231   0.0769231), wk =   0.0027310
        k(    9) = (   0.0000000   0.0769231   0.1538462), wk =   0.0054620
        k(   10) = (   0.0000000   0.0769231   0.2307692), wk =   0.0054620
        k(   11) = (   0.0000000   0.0769231   0.3076923), wk =   0.0054620
        k(   12) = (   0.0000000   0.0769231   0.3846154), wk =   0.0054620
        k(   13) = (  -0.0000000   0.0769231   0.4615385), wk =   0.0054620
        k(   14) = (   0.0000000   0.0769231  -0.4615385), wk =   0.0054620
        k(   15) = (   0.0000000   0.0769231  -0.3846154), wk =   0.0054620
        k(   16) = (   0.0000000   0.0769231  -0.3076923), wk =   0.0054620
        k(   17) = (   0.0000000   0.0769231  -0.2307692), wk =   0.0054620
        k(   18) = (   0.0000000   0.0769231  -0.1538462), wk =   0.0054620
        k(   19) = (   0.0000000   0.0769231  -0.0769231), wk =   0.0027310
        k(   20) = (   0.0000000   0.1538462   0.1538462), wk =   0.0027310
        k(   21) = (   0.0000000   0.1538462   0.2307692), wk =   0.0054620
        k(   22) = (   0.0000000   0.1538462   0.3076923), wk =   0.0054620
        k(   23) = (   0.0000000   0.1538462   0.3846154), wk =   0.0054620
        k(   24) = (   0.0000000   0.1538462   0.4615385), wk =   0.0054620
        k(   25) = (   0.0000000   0.1538462  -0.4615385), wk =   0.0054620
        k(   26) = (   0.0000000   0.1538462  -0.3846154), wk =   0.0054620
        k(   27) = (   0.0000000   0.1538462  -0.3076923), wk =   0.0054620
        k(   28) = (   0.0000000   0.1538462  -0.2307692), wk =   0.0054620
        k(   29) = (   0.0000000   0.1538462  -0.1538462), wk =   0.0027310
        k(   30) = (  -0.0000000   0.2307692   0.2307692), wk =   0.0027310
        k(   31) = (   0.0000000   0.2307692   0.3076923), wk =   0.0054620
        k(   32) = (   0.0000000   0.2307692   0.3846154), wk =   0.0054620
        k(   33) = (  -0.0000000   0.2307692   0.4615385), wk =   0.0054620
        k(   34) = (   0.0000000   0.2307692  -0.4615385), wk =   0.0054620
        k(   35) = (   0.0000000   0.2307692  -0.3846154), wk =   0.0054620
        k(   36) = (   0.0000000   0.2307692  -0.3076923), wk =   0.0054620
        k(   37) = (   0.0000000   0.2307692  -0.2307692), wk =   0.0027310
        k(   38) = (   0.0000000   0.3076923   0.3076923), wk =   0.0027310
        k(   39) = (   0.0000000   0.3076923   0.3846154), wk =   0.0054620
        k(   40) = (   0.0000000   0.3076923   0.4615385), wk =   0.0054620
        k(   41) = (   0.0000000   0.3076923  -0.4615385), wk =   0.0054620
        k(   42) = (   0.0000000   0.3076923  -0.3846154), wk =   0.0054620
        k(   43) = (   0.0000000   0.3076923  -0.3076923), wk =   0.0027310
        k(   44) = (   0.0000000   0.3846154   0.3846154), wk =   0.0027310
        k(   45) = (   0.0000000   0.3846154   0.4615385), wk =   0.0054620
        k(   46) = (   0.0000000   0.3846154  -0.4615385), wk =   0.0054620
        k(   47) = (   0.0000000   0.3846154  -0.3846154), wk =   0.0027310
        k(   48) = (  -0.0000000   0.4615385   0.4615385), wk =   0.0027310
        k(   49) = (   0.0000000   0.4615385  -0.4615385), wk =   0.0027310
        k(   50) = (   0.0769231   0.0769231   0.0769231), wk =   0.0009103
        k(   51) = (   0.0769231   0.0769231   0.1538462), wk =   0.0027310
        k(   52) = (   0.0769231   0.0769231   0.2307692), wk =   0.0027310
        k(   53) = (   0.0769231   0.0769231   0.3076923), wk =   0.0027310
        k(   54) = (   0.0769231   0.0769231   0.3846154), wk =   0.0027310
        k(   55) = (   0.0769231   0.0769231   0.4615385), wk =   0.0027310
        k(   56) = (   0.0769231   0.0769231  -0.4615385), wk =   0.0027310
        k(   57) = (   0.0769231   0.0769231  -0.3846154), wk =   0.0027310
        k(   58) = (   0.0769231   0.0769231  -0.3076923), wk =   0.0027310
        k(   59) = (   0.0769231   0.0769231  -0.2307692), wk =   0.0027310
        k(   60) = (   0.0769231   0.0769231  -0.1538462), wk =   0.0027310
        k(   61) = (   0.0769231   0.0769231  -0.0769231), wk =   0.0027310
        k(   62) = (   0.0769231   0.1538462   0.1538462), wk =   0.0027310
        k(   63) = (   0.0769231   0.1538462   0.2307692), wk =   0.0054620
        k(   64) = (   0.0769231   0.1538462   0.3076923), wk =   0.0054620
        k(   65) = (   0.0769231   0.1538462   0.3846154), wk =   0.0054620
        k(   66) = (   0.0769231   0.1538462   0.4615385), wk =   0.0054620
        k(   67) = (   0.0769231   0.1538462  -0.4615385), wk =   0.0054620
        k(   68) = (   0.0769231   0.1538462  -0.3846154), wk =   0.0054620
        k(   69) = (   0.0769231   0.1538462  -0.3076923), wk =   0.0054620
        k(   70) = (   0.0769231   0.1538462  -0.2307692), wk =   0.0054620
        k(   71) = (   0.0769231   0.1538462  -0.1538462), wk =   0.0054620
        k(   72) = (   0.0769231   0.1538462  -0.0769231), wk =   0.0054620
        k(   73) = (   0.0769231   0.2307692   0.2307692), wk =   0.0027310
        k(   74) = (   0.0769231   0.2307692   0.3076923), wk =   0.0054620
        k(   75) = (   0.0769231   0.2307692   0.3846154), wk =   0.0054620
        k(   76) = (   0.0769231   0.2307692   0.4615385), wk =   0.0054620
        k(   77) = (   0.0769231   0.2307692  -0.4615385), wk =   0.0054620
        k(   78) = (   0.0769231   0.2307692  -0.3846154), wk =   0.0054620
        k(   79) = (   0.0769231   0.2307692  -0.3076923), wk =   0.0054620
        k(   80) = (   0.0769231   0.2307692  -0.2307692), wk =   0.0054620
        k(   81) = (   0.0769231   0.2307692  -0.1538462), wk =   0.0054620
        k(   82) = (   0.0769231   0.2307692  -0.0769231), wk =   0.0054620
        k(   83) = (   0.0769231   0.3076923   0.3076923), wk =   0.0027310
        k(   84) = (   0.0769231   0.3076923   0.3846154), wk =   0.0054620
        k(   85) = (   0.0769231   0.3076923   0.4615385), wk =   0.0054620
        k(   86) = (   0.0769231   0.3076923  -0.4615385), wk =   0.0054620
        k(   87) = (   0.0769231   0.3076923  -0.3846154), wk =   0.0054620
        k(   88) = (   0.0769231   0.3076923  -0.3076923), wk =   0.0054620
        k(   89) = (   0.0769231   0.3076923  -0.2307692), wk =   0.0054620
        k(   90) = (   0.0769231   0.3076923  -0.1538462), wk =   0.0054620
        k(   91) = (   0.0769231   0.3076923  -0.0769231), wk =   0.0054620
        k(   92) = (   0.0769231   0.3846154   0.3846154), wk =   0.0027310
        k(   93) = (   0.0769231   0.3846154   0.4615385), wk =   0.0054620
        k(   94) = (   0.0769231   0.3846154  -0.4615385), wk =   0.0054620
        k(   95) = (   0.0769231   0.3846154  -0.3846154), wk =   0.0054620
        k(   96) = (   0.0769231   0.3846154  -0.3076923), wk =   0.0054620
        k(   97) = (   0.0769231   0.3846154  -0.2307692), wk =   0.0054620
        k(   98) = (   0.0769231   0.3846154  -0.1538462), wk =   0.0054620
        k(   99) = (   0.0769231   0.3846154  -0.0769231), wk =   0.0054620
        k(  100) = (   0.0769231   0.4615385   0.4615385), wk =   0.0027310
        k(  101) = (   0.0769231   0.4615385  -0.4615385), wk =   0.0054620
        k(  102) = (   0.0769231   0.4615385  -0.3846154), wk =   0.0054620
        k(  103) = (   0.0769231   0.4615385  -0.3076923), wk =   0.0054620
        k(  104) = (   0.0769231   0.4615385  -0.2307692), wk =   0.0054620
        k(  105) = (   0.0769231   0.4615385  -0.1538462), wk =   0.0054620
        k(  106) = (   0.0769231   0.4615385  -0.0769231), wk =   0.0054620
        k(  107) = (   0.0769231  -0.4615385  -0.4615385), wk =   0.0027310
        k(  108) = (   0.0769231  -0.4615385  -0.3846154), wk =   0.0054620
        k(  109) = (   0.0769231  -0.4615385  -0.3076923), wk =   0.0054620
        k(  110) = (   0.0769231  -0.4615385  -0.2307692), wk =   0.0054620
        k(  111) = (   0.0769231  -0.4615385  -0.1538462), wk =   0.0054620
        k(  112) = (   0.0769231  -0.3846154  -0.3846154), wk =   0.0027310
        k(  113) = (   0.0769231  -0.3846154  -0.3076923), wk =   0.0054620
        k(  114) = (   0.0769231  -0.3846154  -0.2307692), wk =   0.0054620
        k(  115) = (   0.0769231  -0.3846154  -0.1538462), wk =   0.0054620
        k(  116) = (   0.0769231  -0.3076923  -0.3076923), wk =   0.0027310
        k(  117) = (   0.0769231  -0.3076923  -0.2307692), wk =   0.0054620
        k(  118) = (   0.0769231  -0.3076923  -0.1538462), wk =   0.0054620
        k(  119) = (   0.0769231  -0.2307692  -0.2307692), wk =   0.0027310
        k(  120) = (   0.0769231  -0.2307692  -0.1538462), wk =   0.0054620
        k(  121) = (   0.0769231  -0.1538462  -0.1538462), wk =   0.0027310
        k(  122) = (   0.1538462   0.1538462   0.1538462), wk =   0.0009103
        k(  123) = (   0.1538462   0.1538462   0.2307692), wk =   0.0027310
        k(  124) = (   0.1538462   0.1538462   0.3076923), wk =   0.0027310
        k(  125) = (   0.1538462   0.1538462   0.3846154), wk =   0.0027310
        k(  126) = (   0.1538462   0.1538462   0.4615385), wk =   0.0027310
        k(  127) = (   0.1538462   0.1538462  -0.4615385), wk =   0.0027310
        k(  128) = (   0.1538462   0.1538462  -0.3846154), wk =   0.0027310
        k(  129) = (   0.1538462   0.1538462  -0.3076923), wk =   0.0027310
        k(  130) = (   0.1538462   0.1538462  -0.2307692), wk =   0.0027310
        k(  131) = (   0.1538462   0.1538462  -0.1538462), wk =   0.0027310
        k(  132) = (   0.1538462   0.2307692   0.2307692), wk =   0.0027310
        k(  133) = (   0.1538462   0.2307692   0.3076923), wk =   0.0054620
        k(  134) = (   0.1538462   0.2307692   0.3846154), wk =   0.0054620
        k(  135) = (   0.1538462   0.2307692   0.4615385), wk =   0.0054620
        k(  136) = (   0.1538462   0.2307692  -0.4615385), wk =   0.0054620
        k(  137) = (   0.1538462   0.2307692  -0.3846154), wk =   0.0054620
        k(  138) = (   0.1538462   0.2307692  -0.3076923), wk =   0.0054620
        k(  139) = (   0.1538462   0.2307692  -0.2307692), wk =   0.0054620
        k(  140) = (   0.1538462   0.2307692  -0.1538462), wk =   0.0054620
        k(  141) = (   0.1538462   0.3076923   0.3076923), wk =   0.0027310
        k(  142) = (   0.1538462   0.3076923   0.3846154), wk =   0.0054620
        k(  143) = (   0.1538462   0.3076923   0.4615385), wk =   0.0054620
        k(  144) = (   0.1538462   0.3076923  -0.4615385), wk =   0.0054620
        k(  145) = (   0.1538462   0.3076923  -0.3846154), wk =   0.0054620
        k(  146) = (   0.1538462   0.3076923  -0.3076923), wk =   0.0054620
        k(  147) = (   0.1538462   0.3076923  -0.2307692), wk =   0.0054620
        k(  148) = (   0.1538462   0.3076923  -0.1538462), wk =   0.0054620
        k(  149) = (   0.1538462   0.3846154   0.3846154), wk =   0.0027310
        k(  150) = (   0.1538462   0.3846154   0.4615385), wk =   0.0054620
        k(  151) = (   0.1538462   0.3846154  -0.4615385), wk =   0.0054620
        k(  152) = (   0.1538462   0.3846154  -0.3846154), wk =   0.0054620
        k(  153) = (   0.1538462   0.3846154  -0.3076923), wk =   0.0054620
        k(  154) = (   0.1538462   0.3846154  -0.2307692), wk =   0.0054620
        k(  155) = (   0.1538462   0.3846154  -0.1538462), wk =   0.0054620
        k(  156) = (   0.1538462   0.4615385   0.4615385), wk =   0.0027310
        k(  157) = (   0.1538462   0.4615385  -0.4615385), wk =   0.0054620
        k(  158) = (   0.1538462   0.4615385  -0.3846154), wk =   0.0054620
        k(  159) = (   0.1538462   0.4615385  -0.3076923), wk =   0.0054620
        k(  160) = (   0.1538462   0.4615385  -0.2307692), wk =   0.0054620
        k(  161) = (   0.1538462   0.4615385  -0.1538462), wk =   0.0054620
        k(  162) = (   0.1538462  -0.4615385  -0.4615385), wk =   0.0027310
        k(  163) = (   0.1538462  -0.4615385  -0.3846154), wk =   0.0054620
        k(  164) = (   0.1538462  -0.4615385  -0.3076923), wk =   0.0054620
        k(  165) = (   0.1538462  -0.4615385  -0.2307692), wk =   0.0054620
        k(  166) = (   0.1538462  -0.3846154  -0.3846154), wk =   0.0027310
        k(  167) = (   0.1538462  -0.3846154  -0.3076923), wk =   0.0054620
        k(  168) = (   0.1538462  -0.3846154  -0.2307692), wk =   0.0054620
        k(  169) = (   0.1538462  -0.3076923  -0.3076923), wk =   0.0027310
        k(  170) = (   0.1538462  -0.3076923  -0.2307692), wk =   0.0054620
        k(  171) = (   0.1538462  -0.2307692  -0.2307692), wk =   0.0027310
        k(  172) = (   0.2307692   0.2307692   0.2307692), wk =   0.0009103
        k(  173) = (   0.2307692   0.2307692   0.3076923), wk =   0.0027310
        k(  174) = (   0.2307692   0.2307692   0.3846154), wk =   0.0027310
        k(  175) = (   0.2307692   0.2307692   0.4615385), wk =   0.0027310
        k(  176) = (   0.2307692   0.2307692  -0.4615385), wk =   0.0027310
        k(  177) = (   0.2307692   0.2307692  -0.3846154), wk =   0.0027310
        k(  178) = (   0.2307692   0.2307692  -0.3076923), wk =   0.0027310
        k(  179) = (   0.2307692   0.2307692  -0.2307692), wk =   0.0027310
        k(  180) = (   0.2307692   0.3076923   0.3076923), wk =   0.0027310
        k(  181) = (   0.2307692   0.3076923   0.3846154), wk =   0.0054620
        k(  182) = (   0.2307692   0.3076923   0.4615385), wk =   0.0054620
        k(  183) = (   0.2307692   0.3076923  -0.4615385), wk =   0.0054620
        k(  184) = (   0.2307692   0.3076923  -0.3846154), wk =   0.0054620
        k(  185) = (   0.2307692   0.3076923  -0.3076923), wk =   0.0054620
        k(  186) = (   0.2307692   0.3076923  -0.2307692), wk =   0.0054620
        k(  187) = (   0.2307692   0.3846154   0.3846154), wk =   0.0027310
        k(  188) = (   0.2307692   0.3846154   0.4615385), wk =   0.0054620
        k(  189) = (   0.2307692   0.3846154  -0.4615385), wk =   0.0054620
        k(  190) = (   0.2307692   0.3846154  -0.3846154), wk =   0.0054620
        k(  191) = (   0.2307692   0.3846154  -0.3076923), wk =   0.0054620
        k(  192) = (   0.2307692   0.3846154  -0.2307692), wk =   0.0054620
        k(  193) = (   0.2307692   0.4615385   0.4615385), wk =   0.0027310
        k(  194) = (   0.2307692   0.4615385  -0.4615385), wk =   0.0054620
        k(  195) = (   0.2307692   0.4615385  -0.3846154), wk =   0.0054620
        k(  196) = (   0.2307692   0.4615385  -0.3076923), wk =   0.0054620
        k(  197) = (   0.2307692   0.4615385  -0.2307692), wk =   0.0054620
        k(  198) = (   0.2307692  -0.4615385  -0.4615385), wk =   0.0027310
        k(  199) = (   0.2307692  -0.4615385  -0.3846154), wk =   0.0054620
        k(  200) = (   0.2307692  -0.4615385  -0.3076923), wk =   0.0054620
        k(  201) = (   0.2307692  -0.3846154  -0.3846154), wk =   0.0027310
        k(  202) = (   0.2307692  -0.3846154  -0.3076923), wk =   0.0054620
        k(  203) = (   0.2307692  -0.3076923  -0.3076923), wk =   0.0027310
        k(  204) = (   0.3076923   0.3076923   0.3076923), wk =   0.0009103
        k(  205) = (   0.3076923   0.3076923   0.3846154), wk =   0.0027310
        k(  206) = (   0.3076923   0.3076923   0.4615385), wk =   0.0027310
        k(  207) = (   0.3076923   0.3076923  -0.4615385), wk =   0.0027310
        k(  208) = (   0.3076923   0.3076923  -0.3846154), wk =   0.0027310
        k(  209) = (   0.3076923   0.3076923  -0.3076923), wk =   0.0027310
        k(  210) = (   0.3076923   0.3846154   0.3846154), wk =   0.0027310
        k(  211) = (   0.3076923   0.3846154   0.4615385), wk =   0.0054620
        k(  212) = (   0.3076923   0.3846154  -0.4615385), wk =   0.0054620
        k(  213) = (   0.3076923   0.3846154  -0.3846154), wk =   0.0054620
        k(  214) = (   0.3076923   0.3846154  -0.3076923), wk =   0.0054620
        k(  215) = (   0.3076923   0.4615385   0.4615385), wk =   0.0027310
        k(  216) = (   0.3076923   0.4615385  -0.4615385), wk =   0.0054620
        k(  217) = (   0.3076923   0.4615385  -0.3846154), wk =   0.0054620
        k(  218) = (   0.3076923   0.4615385  -0.3076923), wk =   0.0054620
        k(  219) = (   0.3076923  -0.4615385  -0.4615385), wk =   0.0027310
        k(  220) = (   0.3076923  -0.4615385  -0.3846154), wk =   0.0054620
        k(  221) = (   0.3076923  -0.3846154  -0.3846154), wk =   0.0027310
        k(  222) = (   0.3846154   0.3846154   0.3846154), wk =   0.0009103
        k(  223) = (   0.3846154   0.3846154   0.4615385), wk =   0.0027310
        k(  224) = (   0.3846154   0.3846154  -0.4615385), wk =   0.0027310
        k(  225) = (   0.3846154   0.3846154  -0.3846154), wk =   0.0027310
        k(  226) = (   0.3846154   0.4615385   0.4615385), wk =   0.0027310
        k(  227) = (   0.3846154   0.4615385  -0.4615385), wk =   0.0054620
        k(  228) = (   0.3846154   0.4615385  -0.3846154), wk =   0.0054620
        k(  229) = (   0.3846154  -0.4615385  -0.4615385), wk =   0.0027310
        k(  230) = (   0.4615385   0.4615385   0.4615385), wk =   0.0009103
        k(  231) = (   0.4615385   0.4615385  -0.4615385), wk =   0.0027310

     Dense  grid:   120147 G-vectors     FFT dimensions: (  81,  81,  81)

     Smooth grid:    42513 G-vectors     FFT dimensions: (  60,  60,  60)

     Dynamical RAM for                 wfc:       0.60 MB

     Dynamical RAM for     wfc (w. buffer):      35.53 MB

     Dynamical RAM for           str. fact:       0.79 MB

     Dynamical RAM for           local pot:       0.00 MB

     Dynamical RAM for          nlocal pot:       1.40 MB

     Dynamical RAM for                qrad:       6.42 MB

     Dynamical RAM for          rho,v,vnew:       5.18 MB

     Dynamical RAM for               rhoin:       1.73 MB

     Dynamical RAM for            rho*nmix:       8.38 MB

     Dynamical RAM for           G-vectors:       1.03 MB

     Dynamical RAM for          h,s,v(r/c):       0.50 MB

     Dynamical RAM for          <psi|beta>:       0.10 MB

     Dynamical RAM for                 psi:       1.20 MB

     Dynamical RAM for                hpsi:       1.20 MB

     Dynamical RAM for                spsi:       1.20 MB

     Dynamical RAM for      wfcinit/wfcrot:       1.45 MB

     Dynamical RAM for           addusdens:       7.40 MB

     Dynamical RAM for          addusforce:       7.55 MB

     Dynamical RAM for         addusstress:       7.48 MB

     Estimated static dynamical RAM per process >      56.72 MB

     Estimated max dynamical RAM per process >      72.65 MB

     Estimated total dynamical RAM >       3.57 GB

     Check: negative core charge=   -0.000004
     Generating pointlists ...
     new r_m :   0.1708 (alat units)  2.1631 (a.u.) for type    1
     new r_m :   0.1184 (alat units)  1.4999 (a.u.) for type    2
     new r_m :   0.1184 (alat units)  1.4999 (a.u.) for type    3

     Initial potential from superposition of free atoms

     starting charge      84.9785, renormalised to      85.0000
     Starting wfcs are   59 randomized atomic wfcs
     Checking if some PAW data can be deallocated... 
       PAW data deallocated on   50 nodes for type:  1
       PAW data deallocated on   38 nodes for type:  2
       PAW data deallocated on   24 nodes for type:  3

     total cpu time spent up to now is        5.0 secs

     per-process dynamical memory:    74.3 Mb

     Self-consistent Calculation

     iteration #  1     ecut=    50.00 Ry     beta= 0.40
     Davidson diagonalization with overlap

---- Real-time Memory Report at c_bands before calling an iterative solver
           107 MiB given to the printing process from OS
            72 MiB allocation reported by mallinfo(arena+hblkhd)
        485271 MiB available memory on the node where the printing process lives
------------------
     ethr =  1.00E-02,  avg # of iterations =  4.6

     negative rho (up, down):  5.164E-01 0.000E+00

     total cpu time spent up to now is       15.5 secs

     total energy              =   -1664.88331922 Ry
     estimated scf accuracy    <      11.42896873 Ry

     total magnetization       =     2.95 Bohr mag/cell
     absolute magnetization    =     6.83 Bohr mag/cell

     iteration #  2     ecut=    50.00 Ry     beta= 0.40
     Davidson diagonalization with overlap

---- Real-time Memory Report at c_bands before calling an iterative solver
           129 MiB given to the printing process from OS
            82 MiB allocation reported by mallinfo(arena+hblkhd)
        484188 MiB available memory on the node where the printing process lives
------------------
     ethr =  1.00E-02,  avg # of iterations =  3.0

     negative rho (up, down):  3.197E-01 0.000E+00

     total cpu time spent up to now is       25.4 secs

     total energy              =   -1665.97276832 Ry
     estimated scf accuracy    <       5.11748287 Ry

     total magnetization       =     4.72 Bohr mag/cell
     absolute magnetization    =     5.18 Bohr mag/cell

     iteration #  3     ecut=    50.00 Ry     beta= 0.40
     Davidson diagonalization with overlap

---- Real-time Memory Report at c_bands before calling an iterative solver
           130 MiB given to the printing process from OS
            82 MiB allocation reported by mallinfo(arena+hblkhd)
        484172 MiB available memory on the node where the printing process lives
------------------
     ethr =  6.02E-03,  avg # of iterations =  1.1

     negative rho (up, down):  2.563E-01 0.000E+00

     total cpu time spent up to now is       32.8 secs

     total energy              =   -1666.82264375 Ry
     estimated scf accuracy    <       1.11722448 Ry

     total magnetization       =     3.66 Bohr mag/cell
     absolute magnetization    =     4.12 Bohr mag/cell

     iteration #  4     ecut=    50.00 Ry     beta= 0.40
     Davidson diagonalization with overlap

---- Real-time Memory Report at c_bands before calling an iterative solver
           131 MiB given to the printing process from OS
            83 MiB allocation reported by mallinfo(arena+hblkhd)
        484158 MiB available memory on the node where the printing process lives
------------------
     ethr =  1.31E-03,  avg # of iterations =  3.0

     negative rho (up, down):  4.065E-01 0.000E+00

     total cpu time spent up to now is       41.3 secs

     total energy              =   -1666.95350546 Ry
     estimated scf accuracy    <       3.03925167 Ry

     total magnetization       =     3.64 Bohr mag/cell
     absolute magnetization    =     7.03 Bohr mag/cell

     iteration #  5     ecut=    50.00 Ry     beta= 0.40
     Davidson diagonalization with overlap

---- Real-time Memory Report at c_bands before calling an iterative solver
           132 MiB given to the printing process from OS
            83 MiB allocation reported by mallinfo(arena+hblkhd)
        484144 MiB available memory on the node where the printing process lives
------------------
     ethr =  1.31E-03,  avg # of iterations =  1.3

     negative rho (up, down):  4.799E-01 0.000E+00

     total cpu time spent up to now is       49.1 secs

     total energy              =   -1666.90948185 Ry
     estimated scf accuracy    <       2.10997741 Ry

     total magnetization       =     2.66 Bohr mag/cell
     absolute magnetization    =     5.95 Bohr mag/cell

     iteration #  6     ecut=    50.00 Ry     beta= 0.40
     Davidson diagonalization with overlap

---- Real-time Memory Report at c_bands before calling an iterative solver
           132 MiB given to the printing process from OS
            84 MiB allocation reported by mallinfo(arena+hblkhd)
        484132 MiB available memory on the node where the printing process lives
------------------
     ethr =  1.31E-03,  avg # of iterations =  3.0

     negative rho (up, down):  4.610E-01 0.000E+00

     total cpu time spent up to now is       57.5 secs

     total energy              =   -1666.98070630 Ry
     estimated scf accuracy    <       1.62491957 Ry

     total magnetization       =     2.00 Bohr mag/cell
     absolute magnetization    =     2.89 Bohr mag/cell

     iteration #  7     ecut=    50.00 Ry     beta= 0.40
     Davidson diagonalization with overlap

---- Real-time Memory Report at c_bands before calling an iterative solver
           133 MiB given to the printing process from OS
            84 MiB allocation reported by mallinfo(arena+hblkhd)
        484123 MiB available memory on the node where the printing process lives
------------------
     ethr =  1.31E-03,  avg # of iterations =  2.5

     negative rho (up, down):  4.559E-01 1.049E-02

     total cpu time spent up to now is       65.7 secs

     total energy              =   -1667.00869096 Ry
     estimated scf accuracy    <       0.02509891 Ry

     total magnetization       =     1.71 Bohr mag/cell
     absolute magnetization    =     2.80 Bohr mag/cell

     iteration #  8     ecut=    50.00 Ry     beta= 0.40
     Davidson diagonalization with overlap

---- Real-time Memory Report at c_bands before calling an iterative solver
           134 MiB given to the printing process from OS
            85 MiB allocation reported by mallinfo(arena+hblkhd)
        484112 MiB available memory on the node where the printing process lives
------------------
     ethr =  2.95E-05,  avg # of iterations =  7.8

     negative rho (up, down):  4.809E-01 0.000E+00

     total cpu time spent up to now is       77.9 secs

     total energy              =   -1667.00453860 Ry
     estimated scf accuracy    <       0.21466405 Ry

     total magnetization       =     1.05 Bohr mag/cell
     absolute magnetization    =     3.26 Bohr mag/cell

     iteration #  9     ecut=    50.00 Ry     beta= 0.40
     Davidson diagonalization with overlap

---- Real-time Memory Report at c_bands before calling an iterative solver
           134 MiB given to the printing process from OS
            85 MiB allocation reported by mallinfo(arena+hblkhd)
        484101 MiB available memory on the node where the printing process lives
------------------
     ethr =  2.95E-05,  avg # of iterations =  5.0

     negative rho (up, down):  4.977E-01 6.586E-04

     total cpu time spent up to now is       87.5 secs

     total energy              =   -1667.03728168 Ry
     estimated scf accuracy    <       0.64970339 Ry

     total magnetization       =     1.03 Bohr mag/cell
     absolute magnetization    =     1.51 Bohr mag/cell

     iteration # 10     ecut=    50.00 Ry     beta= 0.40
     Davidson diagonalization with overlap

---- Real-time Memory Report at c_bands before calling an iterative solver
           135 MiB given to the printing process from OS
            85 MiB allocation reported by mallinfo(arena+hblkhd)
        484092 MiB available memory on the node where the printing process lives
------------------
     ethr =  2.95E-05,  avg # of iterations =  5.0

     negative rho (up, down):  4.738E-01 1.930E-02

     total cpu time spent up to now is       96.2 secs

     total energy              =   -1666.99881373 Ry
     estimated scf accuracy    <       2.02875975 Ry

     total magnetization       =     0.66 Bohr mag/cell
     absolute magnetization    =     2.37 Bohr mag/cell

     iteration # 11     ecut=    50.00 Ry     beta= 0.40
     Davidson diagonalization with overlap

---- Real-time Memory Report at c_bands before calling an iterative solver
           135 MiB given to the printing process from OS
            85 MiB allocation reported by mallinfo(arena+hblkhd)
        484089 MiB available memory on the node where the printing process lives
------------------
     ethr =  2.95E-05,  avg # of iterations =  5.5

     negative rho (up, down):  4.607E-01 0.000E+00

     total cpu time spent up to now is      105.9 secs

     total energy              =   -1667.00857356 Ry
     estimated scf accuracy    <       0.80893101 Ry

     total magnetization       =     0.56 Bohr mag/cell
     absolute magnetization    =     0.80 Bohr mag/cell

     iteration # 12     ecut=    50.00 Ry     beta= 0.40
     Davidson diagonalization with overlap

---- Real-time Memory Report at c_bands before calling an iterative solver
           135 MiB given to the printing process from OS
            85 MiB allocation reported by mallinfo(arena+hblkhd)
        484082 MiB available memory on the node where the printing process lives
------------------
     ethr =  2.95E-05,  avg # of iterations =  5.1

     negative rho (up, down):  4.553E-01 0.000E+00

     total cpu time spent up to now is      115.0 secs

     total energy              =   -1667.03080976 Ry
     estimated scf accuracy    <       0.32073662 Ry

     total magnetization       =     0.48 Bohr mag/cell
     absolute magnetization    =     2.47 Bohr mag/cell

     iteration # 13     ecut=    50.00 Ry     beta= 0.40
     Davidson diagonalization with overlap

---- Real-time Memory Report at c_bands before calling an iterative solver
           135 MiB given to the printing process from OS
            85 MiB allocation reported by mallinfo(arena+hblkhd)
        484081 MiB available memory on the node where the printing process lives
------------------
     ethr =  2.95E-05,  avg # of iterations =  3.4

     negative rho (up, down):  4.638E-01 6.962E-04

     total cpu time spent up to now is      123.5 secs

     total energy              =   -1667.03681219 Ry
     estimated scf accuracy    <       0.77648290 Ry

     total magnetization       =     0.41 Bohr mag/cell
     absolute magnetization    =     2.77 Bohr mag/cell

     iteration # 14     ecut=    50.00 Ry     beta= 0.40
     Davidson diagonalization with overlap

---- Real-time Memory Report at c_bands before calling an iterative solver
           135 MiB given to the printing process from OS
            85 MiB allocation reported by mallinfo(arena+hblkhd)
        484072 MiB available memory on the node where the printing process lives
------------------
     ethr =  2.95E-05,  avg # of iterations =  4.0

     negative rho (up, down):  4.790E-01 1.606E-04

     total cpu time spent up to now is      131.8 secs

     total energy              =   -1666.99775834 Ry
     estimated scf accuracy    <       1.39556221 Ry

     total magnetization       =     0.26 Bohr mag/cell
     absolute magnetization    =     2.77 Bohr mag/cell

     iteration # 15     ecut=    50.00 Ry     beta= 0.40
     Davidson diagonalization with overlap

---- Real-time Memory Report at c_bands before calling an iterative solver
           135 MiB given to the printing process from OS
            85 MiB allocation reported by mallinfo(arena+hblkhd)
        484069 MiB available memory on the node where the printing process lives
------------------
     ethr =  2.95E-05,  avg # of iterations =  3.5

     negative rho (up, down):  4.760E-01 3.096E-03

     total cpu time spent up to now is      141.3 secs

     total energy              =   -1667.02041907 Ry
     estimated scf accuracy    <       0.19326702 Ry

     total magnetization       =     0.23 Bohr mag/cell
     absolute magnetization    =     0.77 Bohr mag/cell

     iteration # 16     ecut=    50.00 Ry     beta= 0.40
     Davidson diagonalization with overlap

---- Real-time Memory Report at c_bands before calling an iterative solver
           135 MiB given to the printing process from OS
            85 MiB allocation reported by mallinfo(arena+hblkhd)
        484066 MiB available memory on the node where the printing process lives
------------------
     ethr =  2.95E-05,  avg # of iterations =  2.8

     negative rho (up, down):  4.720E-01 2.284E-02

     total cpu time spent up to now is      149.6 secs

     total energy              =   -1667.02212245 Ry
     estimated scf accuracy    <       0.16381106 Ry

     total magnetization       =     0.11 Bohr mag/cell
     absolute magnetization    =     1.14 Bohr mag/cell

     iteration # 17     ecut=    50.00 Ry     beta= 0.40
     Davidson diagonalization with overlap

---- Real-time Memory Report at c_bands before calling an iterative solver
           136 MiB given to the printing process from OS
            85 MiB allocation reported by mallinfo(arena+hblkhd)
        484058 MiB available memory on the node where the printing process lives
------------------
     ethr =  2.95E-05,  avg # of iterations =  1.5

     negative rho (up, down):  4.706E-01 3.482E-02

     total cpu time spent up to now is      157.3 secs

     total energy              =   -1667.02410993 Ry
     estimated scf accuracy    <       0.20224702 Ry

     total magnetization       =     0.12 Bohr mag/cell
     absolute magnetization    =     1.25 Bohr mag/cell

     iteration # 18     ecut=    50.00 Ry     beta= 0.40
     Davidson diagonalization with overlap

---- Real-time Memory Report at c_bands before calling an iterative solver
           136 MiB given to the printing process from OS
            85 MiB allocation reported by mallinfo(arena+hblkhd)
        484056 MiB available memory on the node where the printing process lives
------------------
     ethr =  2.95E-05,  avg # of iterations =  3.0

     negative rho (up, down):  4.645E-01 1.629E-03

     total cpu time spent up to now is      165.8 secs

     total energy              =   -1667.03155419 Ry
     estimated scf accuracy    <       0.46829017 Ry

     total magnetization       =     0.10 Bohr mag/cell
     absolute magnetization    =     1.74 Bohr mag/cell

     iteration # 19     ecut=    50.00 Ry     beta= 0.40
     Davidson diagonalization with overlap

---- Real-time Memory Report at c_bands before calling an iterative solver
           136 MiB given to the printing process from OS
            85 MiB allocation reported by mallinfo(arena+hblkhd)
        484055 MiB available memory on the node where the printing process lives
------------------
     ethr =  2.95E-05,  avg # of iterations =  3.0

     negative rho (up, down):  4.568E-01 1.474E-02

     total cpu time spent up to now is      174.3 secs

     total energy              =   -1667.03659161 Ry
     estimated scf accuracy    <       0.98114583 Ry

     total magnetization       =     0.11 Bohr mag/cell
     absolute magnetization    =     2.35 Bohr mag/cell

     iteration # 20     ecut=    50.00 Ry     beta= 0.40
     Davidson diagonalization with overlap

---- Real-time Memory Report at c_bands before calling an iterative solver
           136 MiB given to the printing process from OS
            85 MiB allocation reported by mallinfo(arena+hblkhd)
        484049 MiB available memory on the node where the printing process lives
------------------
     ethr =  2.95E-05,  avg # of iterations =  2.5

     negative rho (up, down):  4.501E-01 0.000E+00

     total cpu time spent up to now is      182.5 secs

     total energy              =   -1667.03707400 Ry
     estimated scf accuracy    <       1.21825431 Ry

     total magnetization       =     0.14 Bohr mag/cell
     absolute magnetization    =     2.59 Bohr mag/cell

     iteration # 21     ecut=    50.00 Ry     beta= 0.40
     Davidson diagonalization with overlap

---- Real-time Memory Report at c_bands before calling an iterative solver
           136 MiB given to the printing process from OS
            85 MiB allocation reported by mallinfo(arena+hblkhd)
        484047 MiB available memory on the node where the printing process lives
------------------
     ethr =  2.95E-05,  avg # of iterations =  3.0

     negative rho (up, down):  4.610E-01 0.000E+00

     total cpu time spent up to now is      190.7 secs

     total energy              =   -1667.03949270 Ry
     estimated scf accuracy    <       1.07369265 Ry

     total magnetization       =     0.37 Bohr mag/cell
     absolute magnetization    =     3.11 Bohr mag/cell

     iteration # 22     ecut=    50.00 Ry     beta= 0.40
     Davidson diagonalization with overlap

---- Real-time Memory Report at c_bands before calling an iterative solver
           136 MiB given to the printing process from OS
            85 MiB allocation reported by mallinfo(arena+hblkhd)
        484047 MiB available memory on the node where the printing process lives
------------------
     ethr =  2.95E-05,  avg # of iterations =  3.5

     negative rho (up, down):  4.736E-01 1.860E-02

     total cpu time spent up to now is      198.9 secs

     total energy              =   -1667.00652876 Ry
     estimated scf accuracy    <       1.24567978 Ry

     total magnetization       =     0.24 Bohr mag/cell
     absolute magnetization    =     2.89 Bohr mag/cell

     iteration # 23     ecut=    50.00 Ry     beta= 0.40
     Davidson diagonalization with overlap

---- Real-time Memory Report at c_bands before calling an iterative solver
           136 MiB given to the printing process from OS
            85 MiB allocation reported by mallinfo(arena+hblkhd)
        484040 MiB available memory on the node where the printing process lives
------------------
     ethr =  2.95E-05,  avg # of iterations =  5.5

     negative rho (up, down):  4.703E-01 1.433E-02

     total cpu time spent up to now is      208.3 secs

     total energy              =   -1667.01700171 Ry
     estimated scf accuracy    <       0.38686391 Ry

     total magnetization       =     0.25 Bohr mag/cell
     absolute magnetization    =     0.40 Bohr mag/cell

     iteration # 24     ecut=    50.00 Ry     beta= 0.40
     Davidson diagonalization with overlap

---- Real-time Memory Report at c_bands before calling an iterative solver
           136 MiB given to the printing process from OS
            85 MiB allocation reported by mallinfo(arena+hblkhd)
        484039 MiB available memory on the node where the printing process lives
------------------
     ethr =  2.95E-05,  avg # of iterations =  4.8

     negative rho (up, down):  4.779E-01 0.000E+00

     total cpu time spent up to now is      216.9 secs

     total energy              =   -1667.01364416 Ry
     estimated scf accuracy    <       0.32906183 Ry

     total magnetization       =     0.21 Bohr mag/cell
     absolute magnetization    =     1.77 Bohr mag/cell

     iteration # 25     ecut=    50.00 Ry     beta= 0.40
     Davidson diagonalization with overlap

---- Real-time Memory Report at c_bands before calling an iterative solver
           136 MiB given to the printing process from OS
            85 MiB allocation reported by mallinfo(arena+hblkhd)
        484037 MiB available memory on the node where the printing process lives
------------------
     ethr =  2.95E-05,  avg # of iterations =  5.0

     negative rho (up, down):  4.741E-01 1.044E-02

     total cpu time spent up to now is      225.7 secs

     total energy              =   -1667.01479459 Ry
     estimated scf accuracy    <       0.19015977 Ry

     total magnetization       =     0.03 Bohr mag/cell
     absolute magnetization    =     0.89 Bohr mag/cell

     iteration # 26     ecut=    50.00 Ry     beta= 0.40
     Davidson diagonalization with overlap

---- Real-time Memory Report at c_bands before calling an iterative solver
           136 MiB given to the printing process from OS
            85 MiB allocation reported by mallinfo(arena+hblkhd)
        484034 MiB available memory on the node where the printing process lives
------------------
     ethr =  2.95E-05,  avg # of iterations =  5.4

     negative rho (up, down):  4.752E-01 8.083E-03

     total cpu time spent up to now is      234.8 secs

     total energy              =   -1667.02863861 Ry
     estimated scf accuracy    <       0.48353023 Ry

     total magnetization       =     0.04 Bohr mag/cell
     absolute magnetization    =     0.14 Bohr mag/cell

     iteration # 27     ecut=    50.00 Ry     beta= 0.40
     Davidson diagonalization with overlap

---- Real-time Memory Report at c_bands before calling an iterative solver
           136 MiB given to the printing process from OS
            85 MiB allocation reported by mallinfo(arena+hblkhd)
        484033 MiB available memory on the node where the printing process lives
------------------
     ethr =  2.95E-05,  avg # of iterations =  1.2

     negative rho (up, down):  4.791E-01 0.000E+00

     total cpu time spent up to now is      242.3 secs

     total energy              =   -1667.01611177 Ry
     estimated scf accuracy    <       0.46633716 Ry

     total magnetization       =     0.05 Bohr mag/cell
     absolute magnetization    =     0.23 Bohr mag/cell

     iteration # 28     ecut=    50.00 Ry     beta= 0.40
     Davidson diagonalization with overlap

---- Real-time Memory Report at c_bands before calling an iterative solver
           136 MiB given to the printing process from OS
            85 MiB allocation reported by mallinfo(arena+hblkhd)
        484032 MiB available memory on the node where the printing process lives
------------------
     ethr =  2.95E-05,  avg # of iterations =  5.0

     negative rho (up, down):  4.776E-01 0.000E+00

     total cpu time spent up to now is      250.9 secs

     total energy              =   -1667.02305318 Ry
     estimated scf accuracy    <       0.11738795 Ry

     total magnetization       =     0.08 Bohr mag/cell
     absolute magnetization    =     0.68 Bohr mag/cell

     iteration # 29     ecut=    50.00 Ry     beta= 0.40
     Davidson diagonalization with overlap

---- Real-time Memory Report at c_bands before calling an iterative solver
           136 MiB given to the printing process from OS
            85 MiB allocation reported by mallinfo(arena+hblkhd)
        484029 MiB available memory on the node where the printing process lives
------------------
     ethr =  2.95E-05,  avg # of iterations =  2.5

     negative rho (up, down):  4.750E-01 1.506E-01

     total cpu time spent up to now is      259.0 secs

     total energy              =   -1667.02027313 Ry
     estimated scf accuracy    <       0.08800592 Ry

     total magnetization       =     0.08 Bohr mag/cell
     absolute magnetization    =     0.88 Bohr mag/cell

     iteration # 30     ecut=    50.00 Ry     beta= 0.40
     Davidson diagonalization with overlap

---- Real-time Memory Report at c_bands before calling an iterative solver
           137 MiB given to the printing process from OS
            85 MiB allocation reported by mallinfo(arena+hblkhd)
        484039 MiB available memory on the node where the printing process lives
------------------
     ethr =  2.95E-05,  avg # of iterations =  3.5

     negative rho (up, down):  4.745E-01 0.000E+00

     total cpu time spent up to now is      267.5 secs

     total energy              =   -1667.02005830 Ry
     estimated scf accuracy    <       0.10171320 Ry

     total magnetization       =     0.05 Bohr mag/cell
     absolute magnetization    =     0.44 Bohr mag/cell

     iteration # 31     ecut=    50.00 Ry     beta= 0.40
     Davidson diagonalization with overlap

---- Real-time Memory Report at c_bands before calling an iterative solver
           137 MiB given to the printing process from OS
            85 MiB allocation reported by mallinfo(arena+hblkhd)
        484037 MiB available memory on the node where the printing process lives
------------------
     ethr =  2.95E-05,  avg # of iterations =  4.0

     negative rho (up, down):  4.749E-01 3.023E-05

     total cpu time spent up to now is      275.9 secs

     total energy              =   -1667.02245410 Ry
     estimated scf accuracy    <       0.03777349 Ry

     total magnetization       =     0.04 Bohr mag/cell
     absolute magnetization    =     0.95 Bohr mag/cell

     iteration # 32     ecut=    50.00 Ry     beta= 0.40
     Davidson diagonalization with overlap

---- Real-time Memory Report at c_bands before calling an iterative solver
           137 MiB given to the printing process from OS
            85 MiB allocation reported by mallinfo(arena+hblkhd)
        484045 MiB available memory on the node where the printing process lives
------------------
     ethr =  2.95E-05,  avg # of iterations =  1.0

     negative rho (up, down):  4.740E-01 2.402E-03

     total cpu time spent up to now is      283.1 secs

     total energy              =   -1667.02245496 Ry
     estimated scf accuracy    <       0.05974954 Ry

     total magnetization       =     0.02 Bohr mag/cell
     absolute magnetization    =     0.94 Bohr mag/cell

     iteration # 33     ecut=    50.00 Ry     beta= 0.40
     Davidson diagonalization with overlap

---- Real-time Memory Report at c_bands before calling an iterative solver
           137 MiB given to the printing process from OS
            85 MiB allocation reported by mallinfo(arena+hblkhd)
        484044 MiB available memory on the node where the printing process lives
------------------
     ethr =  2.95E-05,  avg # of iterations =  3.0

     negative rho (up, down):  4.728E-01 3.155E-02

     total cpu time spent up to now is      291.4 secs

     total energy              =   -1667.02339587 Ry
     estimated scf accuracy    <       0.03794690 Ry

     total magnetization       =     0.03 Bohr mag/cell
     absolute magnetization    =     0.83 Bohr mag/cell

     iteration # 34     ecut=    50.00 Ry     beta= 0.40
     Davidson diagonalization with overlap

---- Real-time Memory Report at c_bands before calling an iterative solver
           137 MiB given to the printing process from OS
            85 MiB allocation reported by mallinfo(arena+hblkhd)
        484044 MiB available memory on the node where the printing process lives
------------------
     ethr =  2.95E-05,  avg # of iterations =  4.3

     negative rho (up, down):  4.725E-01 3.863E-02

     total cpu time spent up to now is      299.8 secs

     total energy              =   -1667.02293875 Ry
     estimated scf accuracy    <       0.17579053 Ry

     total magnetization       =     0.02 Bohr mag/cell
     absolute magnetization    =     0.32 Bohr mag/cell

     iteration # 35     ecut=    50.00 Ry     beta= 0.40
     Davidson diagonalization with overlap

---- Real-time Memory Report at c_bands before calling an iterative solver
           137 MiB given to the printing process from OS
            85 MiB allocation reported by mallinfo(arena+hblkhd)
        484042 MiB available memory on the node where the printing process lives
------------------
     ethr =  2.95E-05,  avg # of iterations =  3.0

     negative rho (up, down):  4.707E-01 6.454E-02

     total cpu time spent up to now is      308.2 secs

     total energy              =   -1667.02341591 Ry
     estimated scf accuracy    <       0.01892042 Ry

     total magnetization       =     0.02 Bohr mag/cell
     absolute magnetization    =     0.74 Bohr mag/cell

     iteration # 36     ecut=    50.00 Ry     beta= 0.40
     Davidson diagonalization with overlap

---- Real-time Memory Report at c_bands before calling an iterative solver
           137 MiB given to the printing process from OS
            85 MiB allocation reported by mallinfo(arena+hblkhd)
        484041 MiB available memory on the node where the printing process lives
------------------
     ethr =  2.23E-05,  avg # of iterations =  3.5

     negative rho (up, down):  4.705E-01 6.288E-02

     total cpu time spent up to now is      316.8 secs

     total energy              =   -1667.02954056 Ry
     estimated scf accuracy    <       0.45856913 Ry

     total magnetization       =    -0.01 Bohr mag/cell
     absolute magnetization    =     1.72 Bohr mag/cell

     iteration # 37     ecut=    50.00 Ry     beta= 0.40
     Davidson diagonalization with overlap

---- Real-time Memory Report at c_bands before calling an iterative solver
           137 MiB given to the printing process from OS
            85 MiB allocation reported by mallinfo(arena+hblkhd)
        484040 MiB available memory on the node where the printing process lives
------------------
     ethr =  2.23E-05,  avg # of iterations =  1.5

     negative rho (up, down):  4.722E-01 0.000E+00

     total cpu time spent up to now is      324.6 secs

     total energy              =   -1667.02165919 Ry
     estimated scf accuracy    <       0.40074280 Ry

     total magnetization       =    -0.01 Bohr mag/cell
     absolute magnetization    =     1.68 Bohr mag/cell

     iteration # 38     ecut=    50.00 Ry     beta= 0.40
     Davidson diagonalization with overlap

---- Real-time Memory Report at c_bands before calling an iterative solver
           137 MiB given to the printing process from OS
            85 MiB allocation reported by mallinfo(arena+hblkhd)
        484037 MiB available memory on the node where the printing process lives
------------------
     ethr =  2.23E-05,  avg # of iterations =  4.5

     negative rho (up, down):  4.733E-01 2.007E-02

     total cpu time spent up to now is      333.1 secs

     total energy              =   -1667.01862998 Ry
     estimated scf accuracy    <       0.01923329 Ry

     total magnetization       =    -0.01 Bohr mag/cell
     absolute magnetization    =     1.39 Bohr mag/cell

     iteration # 39     ecut=    50.00 Ry     beta= 0.40
     Davidson diagonalization with overlap

---- Real-time Memory Report at c_bands before calling an iterative solver
           137 MiB given to the printing process from OS
            85 MiB allocation reported by mallinfo(arena+hblkhd)
        484036 MiB available memory on the node where the printing process lives
------------------
     ethr =  2.23E-05,  avg # of iterations =  4.0

     negative rho (up, down):  4.722E-01 4.864E-02

     total cpu time spent up to now is      342.3 secs

     total energy              =   -1667.01548950 Ry
     estimated scf accuracy    <       0.41197006 Ry

     total magnetization       =     0.01 Bohr mag/cell
     absolute magnetization    =     0.10 Bohr mag/cell

     iteration # 40     ecut=    50.00 Ry     beta= 0.40
     Davidson diagonalization with overlap

---- Real-time Memory Report at c_bands before calling an iterative solver
           137 MiB given to the printing process from OS
            85 MiB allocation reported by mallinfo(arena+hblkhd)
        484036 MiB available memory on the node where the printing process lives
------------------
     ethr =  2.23E-05,  avg # of iterations =  4.8

     negative rho (up, down):  4.700E-01 1.993E-01

     total cpu time spent up to now is      351.2 secs

     total energy              =   -1667.00482272 Ry
     estimated scf accuracy    <       0.07658435 Ry

     total magnetization       =     0.01 Bohr mag/cell
     absolute magnetization    =     1.04 Bohr mag/cell

     iteration # 41     ecut=    50.00 Ry     beta= 0.40
     Davidson diagonalization with overlap

---- Real-time Memory Report at c_bands before calling an iterative solver
           137 MiB given to the printing process from OS
            85 MiB allocation reported by mallinfo(arena+hblkhd)
        484032 MiB available memory on the node where the printing process lives
------------------
     ethr =  2.23E-05,  avg # of iterations =  5.5

     negative rho (up, down):  4.714E-01 8.011E-02

     total cpu time spent up to now is      360.9 secs

     total energy              =   -1666.94299631 Ry
     estimated scf accuracy    <       1.21422319 Ry

     total magnetization       =    -0.00 Bohr mag/cell
     absolute magnetization    =     0.75 Bohr mag/cell

     iteration # 42     ecut=    50.00 Ry     beta= 0.40
     Davidson diagonalization with overlap

---- Real-time Memory Report at c_bands before calling an iterative solver
           137 MiB given to the printing process from OS
            85 MiB allocation reported by mallinfo(arena+hblkhd)
        484031 MiB available memory on the node where the printing process lives
------------------
     ethr =  2.23E-05,  avg # of iterations =  5.6

     negative rho (up, down):  4.707E-01 1.136E-01

     total cpu time spent up to now is      371.9 secs

     total energy              =   -1667.02009551 Ry
     estimated scf accuracy    <       2.32016526 Ry

     total magnetization       =     0.01 Bohr mag/cell
[...]
            85 MiB allocation reported by mallinfo(arena+hblkhd)
        484395 MiB available memory on the node where the printing process lives
------------------
     ethr =  2.14E-11,  avg # of iterations =  1.0

     negative rho (up, down):  4.689E-01 1.701E-01

     total cpu time spent up to now is     4014.4 secs

     total energy              =   -1667.02205010 Ry
     estimated scf accuracy    <       0.00000075 Ry

     total magnetization       =     0.00 Bohr mag/cell
     absolute magnetization    =     0.71 Bohr mag/cell

     iteration #481     ecut=    50.00 Ry     beta= 0.40
     Davidson diagonalization with overlap

---- Real-time Memory Report at c_bands before calling an iterative solver
           140 MiB given to the printing process from OS
            85 MiB allocation reported by mallinfo(arena+hblkhd)
        484395 MiB available memory on the node where the printing process lives
------------------
     ethr =  2.14E-11,  avg # of iterations =  2.5

     negative rho (up, down):  4.689E-01 1.701E-01

     total cpu time spent up to now is     4022.3 secs

     total energy              =   -1667.02204466 Ry
     estimated scf accuracy    <       0.00000091 Ry

     total magnetization       =     0.00 Bohr mag/cell
     absolute magnetization    =     0.71 Bohr mag/cell

     iteration #482     ecut=    50.00 Ry     beta= 0.40
     Davidson diagonalization with overlap

---- Real-time Memory Report at c_bands before calling an iterative solver
           140 MiB given to the printing process from OS
            85 MiB allocation reported by mallinfo(arena+hblkhd)
        484394 MiB available memory on the node where the printing process lives
------------------
     ethr =  2.14E-11,  avg # of iterations =  4.2

     negative rho (up, down):  4.689E-01 1.701E-01

     total cpu time spent up to now is     4033.1 secs

     total energy              =   -1667.02204982 Ry
     estimated scf accuracy    <       0.00000624 Ry

     total magnetization       =     0.00 Bohr mag/cell
     absolute magnetization    =     0.72 Bohr mag/cell

     iteration #483     ecut=    50.00 Ry     beta= 0.40
     Davidson diagonalization with overlap

---- Real-time Memory Report at c_bands before calling an iterative solver
           140 MiB given to the printing process from OS
            85 MiB allocation reported by mallinfo(arena+hblkhd)
        484394 MiB available memory on the node where the printing process lives
------------------
     ethr =  2.14E-11,  avg # of iterations =  4.2

     negative rho (up, down):  4.689E-01 1.701E-01

     total cpu time spent up to now is     4044.0 secs

     total energy              =   -1667.02205000 Ry
     estimated scf accuracy    <       0.00000092 Ry

     total magnetization       =     0.00 Bohr mag/cell
     absolute magnetization    =     0.71 Bohr mag/cell

     iteration #484     ecut=    50.00 Ry     beta= 0.40
     Davidson diagonalization with overlap

---- Real-time Memory Report at c_bands before calling an iterative solver
           140 MiB given to the printing process from OS
            85 MiB allocation reported by mallinfo(arena+hblkhd)
        484394 MiB available memory on the node where the printing process lives
------------------
     ethr =  2.14E-11,  avg # of iterations =  1.0

     negative rho (up, down):  4.689E-01 1.701E-01

     total cpu time spent up to now is     4051.3 secs

     total energy              =   -1667.02205007 Ry
     estimated scf accuracy    <       0.00000092 Ry

     total magnetization       =     0.00 Bohr mag/cell
     absolute magnetization    =     0.71 Bohr mag/cell

     iteration #485     ecut=    50.00 Ry     beta= 0.40
     Davidson diagonalization with overlap

---- Real-time Memory Report at c_bands before calling an iterative solver
           140 MiB given to the printing process from OS
            85 MiB allocation reported by mallinfo(arena+hblkhd)
        484397 MiB available memory on the node where the printing process lives
------------------
     ethr =  2.14E-11,  avg # of iterations =  1.0

     negative rho (up, down):  4.689E-01 1.701E-01

     total cpu time spent up to now is     4058.5 secs

     total energy              =   -1667.02205008 Ry
     estimated scf accuracy    <       0.00000092 Ry

     total magnetization       =     0.00 Bohr mag/cell
     absolute magnetization    =     0.71 Bohr mag/cell

     iteration #486     ecut=    50.00 Ry     beta= 0.40
     Davidson diagonalization with overlap

---- Real-time Memory Report at c_bands before calling an iterative solver
           140 MiB given to the printing process from OS
            85 MiB allocation reported by mallinfo(arena+hblkhd)
        484397 MiB available memory on the node where the printing process lives
------------------
     ethr =  2.14E-11,  avg # of iterations =  1.0

     negative rho (up, down):  4.689E-01 1.701E-01

     total cpu time spent up to now is     4065.8 secs

     total energy              =   -1667.02205006 Ry
     estimated scf accuracy    <       0.00000096 Ry

     total magnetization       =     0.00 Bohr mag/cell
     absolute magnetization    =     0.71 Bohr mag/cell

     iteration #487     ecut=    50.00 Ry     beta= 0.40
     Davidson diagonalization with overlap

---- Real-time Memory Report at c_bands before calling an iterative solver
           140 MiB given to the printing process from OS
            85 MiB allocation reported by mallinfo(arena+hblkhd)
        484396 MiB available memory on the node where the printing process lives
------------------
     ethr =  2.14E-11,  avg # of iterations =  1.0

     negative rho (up, down):  4.689E-01 1.701E-01

     total cpu time spent up to now is     4073.0 secs

     total energy              =   -1667.02205018 Ry
     estimated scf accuracy    <       0.00000096 Ry

     total magnetization       =     0.00 Bohr mag/cell
     absolute magnetization    =     0.71 Bohr mag/cell

     iteration #488     ecut=    50.00 Ry     beta= 0.40
     Davidson diagonalization with overlap

---- Real-time Memory Report at c_bands before calling an iterative solver
           140 MiB given to the printing process from OS
            85 MiB allocation reported by mallinfo(arena+hblkhd)
        484398 MiB available memory on the node where the printing process lives
------------------
     ethr =  2.14E-11,  avg # of iterations =  1.5

     negative rho (up, down):  4.689E-01 1.701E-01

     total cpu time spent up to now is     4080.7 secs

     total energy              =   -1667.02204487 Ry
     estimated scf accuracy    <       0.00000099 Ry

     total magnetization       =     0.00 Bohr mag/cell
     absolute magnetization    =     0.71 Bohr mag/cell

     iteration #489     ecut=    50.00 Ry     beta= 0.40
     Davidson diagonalization with overlap

---- Real-time Memory Report at c_bands before calling an iterative solver
           140 MiB given to the printing process from OS
            85 MiB allocation reported by mallinfo(arena+hblkhd)
        484407 MiB available memory on the node where the printing process lives
------------------
     ethr =  2.14E-11,  avg # of iterations =  5.5

     negative rho (up, down):  4.689E-01 1.701E-01

     total cpu time spent up to now is     4090.6 secs

     total energy              =   -1667.02204494 Ry
     estimated scf accuracy    <       0.00000440 Ry

     total magnetization       =     0.00 Bohr mag/cell
     absolute magnetization    =     0.72 Bohr mag/cell

     iteration #490     ecut=    50.00 Ry     beta= 0.40
     Davidson diagonalization with overlap

---- Real-time Memory Report at c_bands before calling an iterative solver
           140 MiB given to the printing process from OS
            85 MiB allocation reported by mallinfo(arena+hblkhd)
        484407 MiB available memory on the node where the printing process lives
------------------
     ethr =  2.14E-11,  avg # of iterations =  4.4

     negative rho (up, down):  4.689E-01 1.701E-01

     total cpu time spent up to now is     4099.0 secs

     total energy              =   -1667.02204494 Ry
     estimated scf accuracy    <       0.00000524 Ry

     total magnetization       =     0.00 Bohr mag/cell
     absolute magnetization    =     0.72 Bohr mag/cell

     iteration #491     ecut=    50.00 Ry     beta= 0.40
     Davidson diagonalization with overlap

---- Real-time Memory Report at c_bands before calling an iterative solver
           140 MiB given to the printing process from OS
            85 MiB allocation reported by mallinfo(arena+hblkhd)
        484406 MiB available memory on the node where the printing process lives
------------------
     ethr =  2.14E-11,  avg # of iterations =  1.0

     negative rho (up, down):  4.689E-01 1.701E-01

     total cpu time spent up to now is     4106.2 secs

     total energy              =   -1667.02204494 Ry
     estimated scf accuracy    <       0.00000523 Ry

     total magnetization       =     0.00 Bohr mag/cell
     absolute magnetization    =     0.72 Bohr mag/cell

     iteration #492     ecut=    50.00 Ry     beta= 0.40
     Davidson diagonalization with overlap

---- Real-time Memory Report at c_bands before calling an iterative solver
           140 MiB given to the printing process from OS
            85 MiB allocation reported by mallinfo(arena+hblkhd)
        484407 MiB available memory on the node where the printing process lives
------------------
     ethr =  2.14E-11,  avg # of iterations =  1.0

     negative rho (up, down):  4.689E-01 1.701E-01

     total cpu time spent up to now is     4113.5 secs

     total energy              =   -1667.02204493 Ry
     estimated scf accuracy    <       0.00000528 Ry

     total magnetization       =     0.00 Bohr mag/cell
     absolute magnetization    =     0.72 Bohr mag/cell

     iteration #493     ecut=    50.00 Ry     beta= 0.40
     Davidson diagonalization with overlap

---- Real-time Memory Report at c_bands before calling an iterative solver
           140 MiB given to the printing process from OS
            85 MiB allocation reported by mallinfo(arena+hblkhd)
        484406 MiB available memory on the node where the printing process lives
------------------
     ethr =  2.14E-11,  avg # of iterations =  1.7

     negative rho (up, down):  4.689E-01 1.701E-01

     total cpu time spent up to now is     4121.2 secs

     total energy              =   -1667.02204493 Ry
     estimated scf accuracy    <       0.00000543 Ry

     total magnetization       =     0.00 Bohr mag/cell
     absolute magnetization    =     0.72 Bohr mag/cell

     iteration #494     ecut=    50.00 Ry     beta= 0.40
     Davidson diagonalization with overlap

---- Real-time Memory Report at c_bands before calling an iterative solver
           140 MiB given to the printing process from OS
            85 MiB allocation reported by mallinfo(arena+hblkhd)
        484406 MiB available memory on the node where the printing process lives
------------------
     ethr =  2.14E-11,  avg # of iterations =  1.5

     negative rho (up, down):  4.689E-01 1.701E-01

     total cpu time spent up to now is     4128.9 secs

     total energy              =   -1667.02204495 Ry
     estimated scf accuracy    <       0.00000560 Ry

     total magnetization       =     0.00 Bohr mag/cell
     absolute magnetization    =     0.72 Bohr mag/cell

     iteration #495     ecut=    50.00 Ry     beta= 0.40
     Davidson diagonalization with overlap

---- Real-time Memory Report at c_bands before calling an iterative solver
           140 MiB given to the printing process from OS
            85 MiB allocation reported by mallinfo(arena+hblkhd)
        484409 MiB available memory on the node where the printing process lives
------------------
     ethr =  2.14E-11,  avg # of iterations =  1.0

     negative rho (up, down):  4.689E-01 1.701E-01

     total cpu time spent up to now is     4136.1 secs

     total energy              =   -1667.02204495 Ry
     estimated scf accuracy    <       0.00000566 Ry

     total magnetization       =     0.00 Bohr mag/cell
     absolute magnetization    =     0.72 Bohr mag/cell

     iteration #496     ecut=    50.00 Ry     beta= 0.40
     Davidson diagonalization with overlap

---- Real-time Memory Report at c_bands before calling an iterative solver
           140 MiB given to the printing process from OS
            85 MiB allocation reported by mallinfo(arena+hblkhd)
        484409 MiB available memory on the node where the printing process lives
------------------
     ethr =  2.14E-11,  avg # of iterations =  2.0

     negative rho (up, down):  4.689E-01 1.701E-01

     total cpu time spent up to now is     4143.8 secs

     total energy              =   -1667.02204495 Ry
     estimated scf accuracy    <       0.00000541 Ry

     total magnetization       =     0.00 Bohr mag/cell
     absolute magnetization    =     0.72 Bohr mag/cell

     iteration #497     ecut=    50.00 Ry     beta= 0.40
     Davidson diagonalization with overlap

---- Real-time Memory Report at c_bands before calling an iterative solver
           140 MiB given to the printing process from OS
            85 MiB allocation reported by mallinfo(arena+hblkhd)
        484409 MiB available memory on the node where the printing process lives
------------------
     ethr =  2.14E-11,  avg # of iterations =  2.9

     negative rho (up, down):  4.689E-01 1.702E-01

     total cpu time spent up to now is     4152.0 secs

     total energy              =   -1667.02204601 Ry
     estimated scf accuracy    <       0.00000564 Ry

     total magnetization       =     0.00 Bohr mag/cell
     absolute magnetization    =     0.72 Bohr mag/cell

     iteration #498     ecut=    50.00 Ry     beta= 0.40
     Davidson diagonalization with overlap

---- Real-time Memory Report at c_bands before calling an iterative solver
           140 MiB given to the printing process from OS
            85 MiB allocation reported by mallinfo(arena+hblkhd)
        484408 MiB available memory on the node where the printing process lives
------------------
     ethr =  2.14E-11,  avg # of iterations =  5.6

     negative rho (up, down):  4.689E-01 1.704E-01

     total cpu time spent up to now is     4162.4 secs

     total energy              =   -1667.02204691 Ry
     estimated scf accuracy    <       0.00000040 Ry

     total magnetization       =     0.00 Bohr mag/cell
     absolute magnetization    =     0.71 Bohr mag/cell

     iteration #499     ecut=    50.00 Ry     beta= 0.40
     Davidson diagonalization with overlap

---- Real-time Memory Report at c_bands before calling an iterative solver
           140 MiB given to the printing process from OS
            85 MiB allocation reported by mallinfo(arena+hblkhd)
        484408 MiB available memory on the node where the printing process lives
------------------
     ethr =  2.14E-11,  avg # of iterations =  5.1

     negative rho (up, down):  4.689E-01 1.703E-01

     total cpu time spent up to now is     4172.2 secs

     total energy              =   -1667.02205179 Ry
     estimated scf accuracy    <       0.00000211 Ry

     total magnetization       =     0.00 Bohr mag/cell
     absolute magnetization    =     0.71 Bohr mag/cell

     iteration #500     ecut=    50.00 Ry     beta= 0.40
     Davidson diagonalization with overlap

---- Real-time Memory Report at c_bands before calling an iterative solver
           140 MiB given to the printing process from OS
            85 MiB allocation reported by mallinfo(arena+hblkhd)
        484408 MiB available memory on the node where the printing process lives
------------------
     ethr =  2.14E-11,  avg # of iterations =  5.6

     negative rho (up, down):  4.689E-01 1.701E-01

     total cpu time spent up to now is     4182.2 secs

     total energy              =   -1667.02205005 Ry
     estimated scf accuracy    <       0.00001389 Ry

     total magnetization       =     0.00 Bohr mag/cell
     absolute magnetization    =     0.71 Bohr mag/cell

     End of self-consistent calculation

     convergence NOT achieved after 500 iterations: stopping

     Writing config to output data dir ./out/aiida.save/ :
     XML data file, charge density

     init_run     :      4.17s CPU      4.45s WALL (       1 calls)
     electrons    :   3912.14s CPU   4177.22s WALL (       1 calls)

     Called by init_run:
     wfcinit      :      2.92s CPU      3.14s WALL (       1 calls)
     wfcinit:atom :      0.03s CPU      0.03s WALL (      58 calls)
     wfcinit:wfcr :      2.70s CPU      2.92s WALL (      58 calls)
     potinit      :      0.72s CPU      0.76s WALL (       1 calls)
     hinit0       :      0.28s CPU      0.29s WALL (       1 calls)

     Called by electrons:
     c_bands      :   3199.21s CPU   3401.60s WALL (     500 calls)
     sum_band     :    590.17s CPU    636.26s WALL (     500 calls)
     v_of_rho     :     47.55s CPU     51.96s WALL (     501 calls)
     v_h          :      1.64s CPU      1.83s WALL (     501 calls)
     v_xc         :     45.91s CPU     50.12s WALL (     501 calls)
     newd         :     10.14s CPU     11.19s WALL (     501 calls)
     PAW_pot      :     50.98s CPU     61.18s WALL (     501 calls)
     mix_rho      :      5.15s CPU      5.32s WALL (     500 calls)

     Called by c_bands:
     init_us_2    :     37.20s CPU     38.97s WALL (   58058 calls)
     init_us_2:cp :     37.00s CPU     38.76s WALL (   58058 calls)
     cegterg      :   2822.76s CPU   3007.59s WALL (   29000 calls)

     Called by sum_band:
     sum_band:wei :      1.73s CPU      1.82s WALL (     500 calls)
     sum_band:loo :    565.50s CPU    609.90s WALL (     500 calls)
     sum_band:buf :      5.34s CPU      5.53s WALL (   29000 calls)
     sum_band:ini :     14.16s CPU     14.60s WALL (   29000 calls)
     sum_band:cal :     48.31s CPU     49.42s WALL (   29000 calls)
     sum_band:bec :      1.32s CPU      1.37s WALL (   29000 calls)
     addusdens    :     14.34s CPU     14.59s WALL (     500 calls)
                                        0.00s GPU  (     500 calls)
     addusd:skk   :      0.07s CPU      0.07s WALL (    1500 calls)
                                        0.00s GPU  (    1500 calls)

     Called by *egterg:
     cdiaghg      :    269.87s CPU    270.71s WALL (   98575 calls)
     cegterg:over :     92.75s CPU     93.33s WALL (   69575 calls)
     cegterg:upda :     53.40s CPU     54.03s WALL (   69575 calls)
     cegterg:last :     89.98s CPU     90.23s WALL (   42751 calls)
     h_psi        :   2163.02s CPU   2342.58s WALL (   98633 calls)
     s_psi        :     84.22s CPU     86.37s WALL (   98633 calls)
     g_psi        :      3.66s CPU      3.87s WALL (   69575 calls)

     Called by h_psi:
     h_psi:calbec :    132.91s CPU    135.23s WALL (   98633 calls)
     vloc_psi     :   1919.49s CPU   2095.19s WALL (   98633 calls)
     add_vuspsi   :     95.38s CPU     96.22s WALL (   98633 calls)

     General routines
     calbec       :    180.86s CPU    184.23s WALL (  127633 calls)
     fft          :     17.83s CPU     19.94s WALL (   12523 calls)
     ffts         :      1.24s CPU      1.35s WALL (    2002 calls)
     fftw         :   1994.38s CPU   2186.92s WALL ( 7707240 calls)
     interpolate  :      3.04s CPU      3.24s WALL (    1002 calls)
     davcio       :      0.00s CPU      0.05s WALL (      76 calls)

     Parallel routines

     PAW routines
     PAW_pot      :     50.98s CPU     61.18s WALL (     501 calls)
     PAW_symme    :      0.18s CPU      0.20s WALL (    1001 calls)

     PWSCF        :      1h 5m CPU      1h 9m WALL


   This run was terminated on:  20:37:17  28Nov2023            

=------------------------------------------------------------------------------=
   JOB DONE.
=------------------------------------------------------------------------------=
