
     Program PWSCF v.7.2 starts on 23Oct2023 at 20:21:19 

     This program is part of the open-source Quantum ESPRESSO suite
     for quantum simulation of materials; please cite
         "P. Giannozzi et al., J. Phys.:Condens. Matter 21 395502 (2009);
         "P. Giannozzi et al., J. Phys.:Condens. Matter 29 465901 (2017);
         "P. Giannozzi et al., J. Chem. Phys. 152 154105 (2020);
          URL http://www.quantum-espresso.org", 
     in publications or presentations arising from this work. More details at
     http://www.quantum-espresso.org/quote

     Parallel version (MPI & OpenMP), running on      12 processor cores
     Number of MPI processes:                 1
     Threads/MPI process:                    12

     MPI processes distributed on     1 nodes
     60525 MiB available memory on the printing compute node when the environment starts
 
     Reading input from aiida.in

     Current dimensions of program PWSCF are:
     Max number of different atomic species (ntypx) = 10
     Max number of k-points (npk) =  40000
     Max angular momentum in pseudopotentials (lmaxx) =  4
     file Fe.pbesol-spn-kjpaw_psl.0.2.1.UPF: wavefunction(s)  3D renormalized
     Message from routine setup:
     using ibrav=0 with symmetry is DISCOURAGED, use correct ibrav instead
 
     Subspace diagonalization in iterative solution of the eigenvalue problem:
     a serial algorithm will be used

 
     G-vector sticks info
     --------------------
     sticks:   dense  smooth     PW     G-vecs:    dense   smooth      PW
     Sum        7163    2385    691               390693    75123   11649
 
     Using Slab Decomposition
 


     bravais-lattice index     =            0
     lattice parameter (alat)  =       9.9588  a.u.
     unit-cell volume          =     651.7263 (a.u.)^3
     number of atoms/cell      =            8
     number of atomic types    =            3
     number of electrons       =        76.00
     number of Kohn-Sham states=           46
     kinetic-energy cutoff     =      90.0000  Ry
     charge density cutoff     =    1080.0000  Ry
     scf convergence threshold =      1.6E-09
     mixing beta               =       0.2000
     number of iterations used =            8  plain     mixing
     Exchange-correlation= SLA  PW   PSX  PSC
                           (   1   4  10   8   0   0   0)

     GPU acceleration is ACTIVE.


     GPU used by master process:

        Device Number: 0
        Device name: Tesla P100-PCIE-16GB
        Compute capability : 60
        Ratio of single to double precision performance  : 2
        Memory Clock Rate (KHz): 715000
        Memory Bus Width (bits): 4096
        Peak Memory Bandwidth (GB/s): 732.16

     celldm(1)=   9.958819  celldm(2)=   0.000000  celldm(3)=   0.000000
     celldm(4)=   0.000000  celldm(5)=   0.000000  celldm(6)=   0.000000

     crystal axes: (cart. coord. in units of alat)
               a(1) = (   0.477924   0.275930   0.833937 )  
               a(2) = (  -0.477924   0.275930   0.833937 )  
               a(3) = (  -0.000000  -0.551859   0.833937 )  

     reciprocal axes: (cart. coord. in units 2 pi/alat)
               b(1) = (  1.046191  0.604019  0.399710 )  
               b(2) = ( -1.046191  0.604019  0.399710 )  
               b(3) = ( -0.000000 -1.208038  0.399710 )  


     PseudoPot. # 1 for F  read from file:
     ./pseudo/f_pbesol_v1.4.uspp.F.UPF
     MD5 check sum: d2815ecb49b17b99c5724ffd2f9bbd8d
     Pseudo is Ultrasoft, Zval =  7.0
     Generated by new atomic code, or converted to UPF format
     Using radial grid of  799 points,  4 beta functions with: 
                l(1) =   0
                l(2) =   0
                l(3) =   1
                l(4) =   1
     Q(r) pseudized with  8 coefficients,  rinner =    0.950   0.950   0.950


     PseudoPot. # 2 for Fe read from file:
     ./pseudo/Fe.pbesol-spn-kjpaw_psl.0.2.1.UPF
     MD5 check sum: 4d7ec5aa2156491519a4322664fbbf52
     Pseudo is Projector augmented-wave + core cor, Zval = 16.0
     Generated using "atomic" code by A. Dal Corso  v.6.0 svn rev. 13079
     Shape of augmentation charge: PSQ
     Using radial grid of 1191 points,  6 beta functions with: 
                l(1) =   0
                l(2) =   0
                l(3) =   1
                l(4) =   1
                l(5) =   2
                l(6) =   2
     Q(r) pseudized with 0 coefficients 


     PseudoPot. # 3 for Ni read from file:
     ./pseudo/ni_pbesol_v1.4.uspp.F.UPF
     MD5 check sum: de937c0c8ae4b350e69c02b76d8a83cb
     Pseudo is Ultrasoft + core correction, Zval = 18.0
     Generated by new atomic code, or converted to UPF format
     Using radial grid of  865 points,  6 beta functions with: 
                l(1) =   0
                l(2) =   0
                l(3) =   1
                l(4) =   1
                l(5) =   2
                l(6) =   2
     Q(r) pseudized with 10 coefficients,  rinner =    0.980   0.980   0.980
                                                       0.980   0.980

     atomic species   valence    mass     pseudopotential
        F              7.00    18.99840     F ( 1.00)
        Fe            16.00    55.84500     Fe( 1.00)
        Ni            18.00    58.69340     Ni( 1.00)

     Starting magnetic structure 
     atomic species   magnetization
        F            0.100
        Fe           0.313
        Ni           0.278

      6 Sym. Ops., with inversion, found


                                    s                        frac. trans.

      isym =  1     identity                                     

 cryst.   s( 1) = (     1          0          0      )
                  (     0          1          0      )
                  (     0          0          1      )

 cart.    s( 1) = (  1.0000000  0.0000000 -0.0000000 )
                  (  0.0000000  1.0000000  0.0000000 )
                  ( -0.0000000  0.0000000  1.0000000 )


      isym =  2     120 deg rotation - cryst. axis [0,0,1]       

 cryst.   s( 2) = (     0          1          0      )
                  (     0          0          1      )
                  (     1          0          0      )

 cart.    s( 2) = ( -0.5000000 -0.8660254 -0.0000000 )
                  (  0.8660254 -0.5000000  0.0000000 )
                  ( -0.0000000 -0.0000000  1.0000000 )


      isym =  3     120 deg rotation - cryst. axis [0,0,-1]      

 cryst.   s( 3) = (     0          0          1      )
                  (     1          0          0      )
                  (     0          1          0      )

 cart.    s( 3) = ( -0.5000000  0.8660254 -0.0000000 )
                  ( -0.8660254 -0.5000000  0.0000000 )
                  (  0.0000000  0.0000000  1.0000000 )


      isym =  4     inversion                                    

 cryst.   s( 4) = (    -1          0          0      )
                  (     0         -1          0      )
                  (     0          0         -1      )

 cart.    s( 4) = ( -1.0000000 -0.0000000  0.0000000 )
                  ( -0.0000000 -1.0000000 -0.0000000 )
                  (  0.0000000 -0.0000000 -1.0000000 )


      isym =  5     inv. 120 deg rotation - cryst. axis [0,0,1]  

 cryst.   s( 5) = (     0         -1          0      )
                  (     0          0         -1      )
                  (    -1          0          0      )

 cart.    s( 5) = (  0.5000000  0.8660254  0.0000000 )
                  ( -0.8660254  0.5000000 -0.0000000 )
                  (  0.0000000  0.0000000 -1.0000000 )


      isym =  6     inv. 120 deg rotation - cryst. axis [0,0,-1] 

 cryst.   s( 6) = (     0          0         -1      )
                  (    -1          0          0      )
                  (     0         -1          0      )

 cart.    s( 6) = (  0.5000000 -0.8660254  0.0000000 )
                  (  0.8660254  0.5000000 -0.0000000 )
                  ( -0.0000000 -0.0000000 -1.0000000 )


   Cartesian axes

     site n.     atom                  positions (alat units)
         1           Fe  tau(   1) = (  -0.0000000   0.5518591   0.4169687  )
         2           Ni  tau(   2) = (   0.0000000   0.0000000   0.0000000  )
         3           F   tau(   3) = (  -0.2998495   0.6087558   0.1998948  )
         4           F   tau(   4) = (   0.3772732   0.0121961   0.6340426  )
         5           F   tau(   5) = (   0.7566493   0.3206301   0.6340426  )
         6           F   tau(   6) = (   0.2998495   0.4949624   0.6340426  )
         7           F   tau(   7) = (   0.1006508   0.2637335   0.1998948  )
         8           F   tau(   8) = (   0.1991987   0.7830881   0.1998948  )

   Crystallographic axes

     site n.     atom                  positions (cryst. coord.)
         1           Fe  tau(   1) = (  0.5000000  0.5000000 -0.5000000  )
         2           Ni  tau(   2) = (  0.0000000  0.0000000  0.0000000  )
         3           F   tau(   3) = (  0.1339000  0.7613000 -0.6555000  )
         4           F   tau(   4) = (  0.6555000 -0.1339000  0.2387000  )
         5           F   tau(   5) = (  1.2387000 -0.3445000 -0.1339000  )
         6           F   tau(   6) = (  0.8661000  0.2387000 -0.3445000  )
         7           F   tau(   7) = (  0.3445000  0.1339000 -0.2387000  )
         8           F   tau(   8) = (  0.7613000  0.3445000 -0.8661000  )

     number of k points=   226  Marzari-Vanderbilt smearing, width (Ry)=  0.0100
                       cart. coord. in units 2pi/alat
        k(    1) = (   0.0000000   0.0000000   0.0000000), wk =   0.0007513
        k(    2) = (  -0.0000000  -0.1098216   0.0363373), wk =   0.0045079
        k(    3) = (  -0.0000000  -0.2196432   0.0726746), wk =   0.0045079
        k(    4) = (  -0.0000000  -0.3294649   0.1090119), wk =   0.0045079
        k(    5) = (  -0.0000000  -0.4392865   0.1453492), wk =   0.0045079
        k(    6) = (  -0.0000000  -0.5491081   0.1816865), wk =   0.0045079
        k(    7) = (  -0.0951083  -0.0549108   0.0726746), wk =   0.0045079
        k(    8) = (  -0.0951083  -0.1647324   0.1090119), wk =   0.0045079
        k(    9) = (  -0.0951083  -0.2745540   0.1453492), wk =   0.0045079
        k(   10) = (  -0.0951083  -0.3843757   0.1816865), wk =   0.0045079
        k(   11) = (  -0.0951083  -0.4941973   0.2180238), wk =   0.0045079
        k(   12) = (  -0.0951083   0.6040189  -0.1453492), wk =   0.0045079
        k(   13) = (  -0.0951083   0.4941973  -0.1090119), wk =   0.0045079
        k(   14) = (  -0.0951083   0.3843757  -0.0726746), wk =   0.0045079
        k(   15) = (  -0.0951083   0.2745540  -0.0363373), wk =   0.0045079
        k(   16) = (  -0.0951083   0.1647324  -0.0000000), wk =   0.0045079
        k(   17) = (  -0.1902166  -0.1098216   0.1453492), wk =   0.0045079
        k(   18) = (  -0.1902166  -0.2196432   0.1816865), wk =   0.0045079
        k(   19) = (  -0.1902166  -0.3294649   0.2180238), wk =   0.0045079
        k(   20) = (  -0.1902166  -0.4392865   0.2543611), wk =   0.0045079
        k(   21) = (  -0.1902166   0.6589297  -0.1090119), wk =   0.0045079
        k(   22) = (  -0.1902166   0.5491081  -0.0726746), wk =   0.0045079
        k(   23) = (  -0.1902166   0.4392865  -0.0363373), wk =   0.0045079
        k(   24) = (  -0.1902166   0.3294649   0.0000000), wk =   0.0045079
        k(   25) = (  -0.2853249  -0.1647324   0.2180238), wk =   0.0045079
        k(   26) = (  -0.2853249  -0.2745540   0.2543611), wk =   0.0045079
        k(   27) = (  -0.2853249  -0.3843757   0.2906984), wk =   0.0045079
        k(   28) = (  -0.2853249   0.7138405  -0.0726746), wk =   0.0045079
        k(   29) = (  -0.2853249   0.6040189  -0.0363373), wk =   0.0045079
        k(   30) = (  -0.2853249   0.4941973   0.0000000), wk =   0.0045079
        k(   31) = (  -0.3804332  -0.2196432   0.2906984), wk =   0.0045079
        k(   32) = (  -0.3804332  -0.3294649   0.3270357), wk =   0.0045079
        k(   33) = (  -0.3804332   0.7687513  -0.0363373), wk =   0.0045079
        k(   34) = (  -0.3804332   0.6589297  -0.0000000), wk =   0.0045079
        k(   35) = (  -0.4755416  -0.2745540   0.3633730), wk =   0.0045079
        k(   36) = (  -0.4755416   0.8236621  -0.0000000), wk =   0.0045079
        k(   37) = (   0.0000000  -0.0000000   0.1090119), wk =   0.0015026
        k(   38) = (   0.0000000  -0.1098216   0.1453492), wk =   0.0045079
        k(   39) = (   0.0000000  -0.2196432   0.1816865), wk =   0.0045079
        k(   40) = (   0.0000000  -0.3294649   0.2180238), wk =   0.0045079
        k(   41) = (   0.0000000  -0.4392865   0.2543611), wk =   0.0045079
        k(   42) = (   0.0000000   0.6589297  -0.1090119), wk =   0.0045079
        k(   43) = (   0.0000000   0.5491081  -0.0726746), wk =   0.0045079
        k(   44) = (   0.0000000   0.4392865  -0.0363373), wk =   0.0045079
        k(   45) = (   0.0000000   0.3294649   0.0000000), wk =   0.0045079
        k(   46) = (   0.0000000   0.2196432   0.0363373), wk =   0.0045079
        k(   47) = (  -0.0951083  -0.0549108   0.1816865), wk =   0.0045079
        k(   48) = (  -0.0951083  -0.1647324   0.2180238), wk =   0.0045079
        k(   49) = (  -0.0951083  -0.2745540   0.2543611), wk =   0.0045079
        k(   50) = (  -0.0951083  -0.3843757   0.2906984), wk =   0.0045079
        k(   51) = (  -0.0951083   0.7138405  -0.0726746), wk =   0.0045079
        k(   52) = (  -0.0951083   0.6040189  -0.0363373), wk =   0.0045079
        k(   53) = (  -0.0951083   0.4941973   0.0000000), wk =   0.0045079
        k(   54) = (  -0.0951083   0.3843757   0.0363373), wk =   0.0045079
        k(   55) = (  -0.0951083   0.2745540   0.0726746), wk =   0.0045079
        k(   56) = (  -0.1902166  -0.1098216   0.2543611), wk =   0.0045079
        k(   57) = (  -0.1902166  -0.2196432   0.2906984), wk =   0.0045079
        k(   58) = (  -0.1902166  -0.3294649   0.3270357), wk =   0.0045079
        k(   59) = (  -0.1902166   0.7687513  -0.0363373), wk =   0.0045079
        k(   60) = (  -0.1902166   0.6589297  -0.0000000), wk =   0.0045079
        k(   61) = (  -0.1902166   0.5491081   0.0363373), wk =   0.0045079
        k(   62) = (  -0.1902166   0.4392865   0.0726746), wk =   0.0045079
        k(   63) = (  -0.1902166   0.3294649   0.1090119), wk =   0.0045079
        k(   64) = (  -0.2853249  -0.1647324   0.3270357), wk =   0.0045079
        k(   65) = (  -0.2853249  -0.2745540   0.3633730), wk =   0.0045079
        k(   66) = (  -0.2853249   0.8236621  -0.0000000), wk =   0.0045079
        k(   67) = (  -0.2853249   0.7138405   0.0363373), wk =   0.0045079
        k(   68) = (  -0.2853249   0.6040189   0.0726746), wk =   0.0045079
        k(   69) = (  -0.2853249   0.4941973   0.1090119), wk =   0.0045079
        k(   70) = (  -0.2853249   0.3843757   0.1453492), wk =   0.0045079
        k(   71) = (  -0.3804332  -0.2196432   0.3997103), wk =   0.0045079
        k(   72) = (  -0.3804332   0.8785730   0.0363373), wk =   0.0045079
        k(   73) = (  -0.3804332   0.7687513   0.0726746), wk =   0.0045079
        k(   74) = (  -0.3804332   0.6589297   0.1090119), wk =   0.0045079
        k(   75) = (  -0.3804332   0.5491081   0.1453492), wk =   0.0045079
        k(   76) = (  -0.3804332   0.4392865   0.1816865), wk =   0.0045079
        k(   77) = (   0.5706499   0.3294649  -0.3270357), wk =   0.0045079
        k(   78) = (   0.5706499   0.2196432  -0.2906984), wk =   0.0045079
        k(   79) = (   0.5706499   0.1098216  -0.2543611), wk =   0.0045079
        k(   80) = (   0.5706499  -0.0000000  -0.2180238), wk =   0.0045079
        k(   81) = (   0.4755416   0.2745540  -0.2543611), wk =   0.0045079
        k(   82) = (   0.4755416   0.1647324  -0.2180238), wk =   0.0045079
        k(   83) = (   0.4755416   0.0549108  -0.1816865), wk =   0.0045079
        k(   84) = (   0.3804332   0.2196432  -0.1816865), wk =   0.0045079
        k(   85) = (   0.3804332   0.1098216  -0.1453492), wk =   0.0045079
        k(   86) = (   0.2853249   0.1647324  -0.1090119), wk =   0.0045079
        k(   87) = (   0.0000000  -0.0000000   0.2180238), wk =   0.0015026
        k(   88) = (   0.0000000  -0.1098216   0.2543611), wk =   0.0045079
        k(   89) = (   0.0000000  -0.2196432   0.2906984), wk =   0.0045079
        k(   90) = (   0.0000000  -0.3294649   0.3270357), wk =   0.0045079
        k(   91) = (   0.0000000   0.7687513  -0.0363373), wk =   0.0045079
        k(   92) = (   0.0000000   0.6589297  -0.0000000), wk =   0.0045079
        k(   93) = (   0.0000000   0.5491081   0.0363373), wk =   0.0045079
        k(   94) = (   0.0000000   0.4392865   0.0726746), wk =   0.0045079
        k(   95) = (  -0.0951083  -0.0549108   0.2906984), wk =   0.0045079
        k(   96) = (  -0.0951083  -0.1647324   0.3270357), wk =   0.0045079
        k(   97) = (  -0.0951083  -0.2745540   0.3633730), wk =   0.0045079
        k(   98) = (  -0.0951083   0.8236621  -0.0000000), wk =   0.0045079
        k(   99) = (  -0.0951083   0.7138405   0.0363373), wk =   0.0045079
        k(  100) = (  -0.0951083   0.6040189   0.0726746), wk =   0.0045079
        k(  101) = (  -0.0951083   0.4941973   0.1090119), wk =   0.0045079
        k(  102) = (  -0.1902166  -0.1098216   0.3633730), wk =   0.0045079
        k(  103) = (  -0.1902166  -0.2196432   0.3997103), wk =   0.0045079
        k(  104) = (  -0.1902166   0.8785730   0.0363373), wk =   0.0045079
        k(  105) = (  -0.1902166   0.7687513   0.0726746), wk =   0.0045079
        k(  106) = (  -0.1902166   0.6589297   0.1090119), wk =   0.0045079
        k(  107) = (  -0.1902166   0.5491081   0.1453492), wk =   0.0045079
        k(  108) = (  -0.2853249  -0.1647324   0.4360476), wk =   0.0045079
        k(  109) = (  -0.2853249   0.9334838   0.0726746), wk =   0.0045079
        k(  110) = (  -0.2853249   0.8236621   0.1090119), wk =   0.0045079
        k(  111) = (  -0.2853249   0.7138405   0.1453492), wk =   0.0045079
        k(  112) = (  -0.2853249   0.6040189   0.1816865), wk =   0.0045079
        k(  113) = (   0.6657582   0.3843757  -0.2906984), wk =   0.0045079
        k(  114) = (   0.6657582   0.2745540  -0.2543611), wk =   0.0045079
        k(  115) = (   0.6657582   0.1647324  -0.2180238), wk =   0.0045079
        k(  116) = (   0.5706499   0.3294649  -0.2180238), wk =   0.0045079
        k(  117) = (   0.5706499   0.2196432  -0.1816865), wk =   0.0045079
        k(  118) = (   0.4755416   0.2745540  -0.1453492), wk =   0.0045079
        k(  119) = (   0.0000000   0.0000000   0.3270357), wk =   0.0015026
        k(  120) = (   0.0000000  -0.1098216   0.3633730), wk =   0.0045079
        k(  121) = (   0.0000000  -0.2196432   0.3997103), wk =   0.0045079
        k(  122) = (   0.0000000   0.8785730   0.0363373), wk =   0.0045079
        k(  123) = (   0.0000000   0.7687513   0.0726746), wk =   0.0045079
        k(  124) = (   0.0000000   0.6589297   0.1090119), wk =   0.0045079
        k(  125) = (  -0.0951083  -0.0549108   0.3997103), wk =   0.0045079
        k(  126) = (  -0.0951083  -0.1647324   0.4360476), wk =   0.0045079
        k(  127) = (  -0.0951083   0.9334838   0.0726746), wk =   0.0045079
        k(  128) = (  -0.0951083   0.8236621   0.1090119), wk =   0.0045079
        k(  129) = (  -0.0951083   0.7138405   0.1453492), wk =   0.0045079
        k(  130) = (  -0.1902166  -0.1098216   0.4723849), wk =   0.0045079
        k(  131) = (  -0.1902166   0.9883946   0.1090119), wk =   0.0045079
        k(  132) = (  -0.1902166   0.8785730   0.1453492), wk =   0.0045079
        k(  133) = (  -0.1902166   0.7687513   0.1816865), wk =   0.0045079
        k(  134) = (   0.7608665   0.4392865  -0.2543611), wk =   0.0045079
        k(  135) = (   0.7608665   0.3294649  -0.2180238), wk =   0.0045079
        k(  136) = (   0.6657582   0.3843757  -0.1816865), wk =   0.0045079
        k(  137) = (   0.0000000  -0.0000000   0.4360476), wk =   0.0015026
        k(  138) = (   0.0000000  -0.1098216   0.4723849), wk =   0.0045079
        k(  139) = (   0.0000000   0.9883946   0.1090119), wk =   0.0045079
        k(  140) = (   0.0000000   0.8785730   0.1453492), wk =   0.0045079
        k(  141) = (  -0.0951083  -0.0549108   0.5087222), wk =   0.0045079
        k(  142) = (  -0.0951083   1.0433054   0.1453492), wk =   0.0045079
        k(  143) = (  -0.0951083   0.9334838   0.1816865), wk =   0.0045079
        k(  144) = (   0.8559748   0.4941973  -0.2180238), wk =   0.0045079
        k(  145) = (  -0.0000000   0.0000000   0.5450595), wk =   0.0015026
        k(  146) = (  -0.0000000   1.0982162   0.1816865), wk =   0.0045079
        k(  147) = (  -0.0951083   0.1647324  -0.1090119), wk =   0.0045079
        k(  148) = (  -0.0951083   0.2745540  -0.1453492), wk =   0.0045079
        k(  149) = (  -0.0951083   0.3843757  -0.1816865), wk =   0.0045079
        k(  150) = (  -0.0951083   0.4941973  -0.2180238), wk =   0.0045079
        k(  151) = (  -0.0951083  -0.6040189   0.1453492), wk =   0.0045079
        k(  152) = (  -0.0951083  -0.4941973   0.1090119), wk =   0.0045079
        k(  153) = (  -0.0951083  -0.3843757   0.0726746), wk =   0.0045079
        k(  154) = (  -0.0951083  -0.2745540   0.0363373), wk =   0.0045079
        k(  155) = (  -0.1902166   0.2196432  -0.1816865), wk =   0.0045079
        k(  156) = (  -0.1902166   0.3294649  -0.2180238), wk =   0.0045079
        k(  157) = (  -0.1902166   0.4392865  -0.2543611), wk =   0.0045079
        k(  158) = (  -0.1902166  -0.6589297   0.1090119), wk =   0.0045079
        k(  159) = (  -0.1902166  -0.5491081   0.0726746), wk =   0.0045079
        k(  160) = (  -0.1902166  -0.4392865   0.0363373), wk =   0.0045079
        k(  161) = (  -0.2853249   0.2745540  -0.2543611), wk =   0.0045079
        k(  162) = (  -0.2853249   0.3843757  -0.2906984), wk =   0.0045079
        k(  163) = (  -0.2853249  -0.7138405   0.0726746), wk =   0.0045079
        k(  164) = (  -0.2853249  -0.6040189   0.0363373), wk =   0.0045079
        k(  165) = (  -0.3804332   0.3294649  -0.3270357), wk =   0.0045079
        k(  166) = (  -0.3804332  -0.7687513   0.0363373), wk =   0.0045079
        k(  167) = (  -0.0951083   0.1647324  -0.2180238), wk =   0.0045079
        k(  168) = (  -0.0951083   0.2745540  -0.2543611), wk =   0.0045079
        k(  169) = (  -0.0951083   0.3843757  -0.2906984), wk =   0.0045079
        k(  170) = (  -0.0951083  -0.7138405   0.0726746), wk =   0.0045079
        k(  171) = (  -0.0951083  -0.6040189   0.0363373), wk =   0.0045079
        k(  172) = (  -0.0951083  -0.4941973  -0.0000000), wk =   0.0045079
        k(  173) = (  -0.0951083  -0.3843757  -0.0363373), wk =   0.0045079
        k(  174) = (  -0.0951083  -0.2745540  -0.0726746), wk =   0.0045079
        k(  175) = (  -0.1902166   0.2196432  -0.2906984), wk =   0.0045079
        k(  176) = (  -0.1902166   0.3294649  -0.3270357), wk =   0.0045079
        k(  177) = (  -0.1902166  -0.7687513   0.0363373), wk =   0.0045079
        k(  178) = (  -0.1902166  -0.6589297   0.0000000), wk =   0.0045079
        k(  179) = (  -0.1902166  -0.5491081  -0.0363373), wk =   0.0045079
        k(  180) = (  -0.1902166  -0.4392865  -0.0726746), wk =   0.0045079
        k(  181) = (  -0.1902166  -0.3294649  -0.1090119), wk =   0.0045079
        k(  182) = (  -0.2853249   0.2745540  -0.3633730), wk =   0.0045079
        k(  183) = (  -0.2853249  -0.8236621  -0.0000000), wk =   0.0045079
        k(  184) = (  -0.2853249  -0.7138405  -0.0363373), wk =   0.0045079
        k(  185) = (  -0.2853249  -0.6040189  -0.0726746), wk =   0.0045079
        k(  186) = (  -0.2853249  -0.4941973  -0.1090119), wk =   0.0045079
        k(  187) = (  -0.2853249  -0.3843757  -0.1453492), wk =   0.0045079
        k(  188) = (  -0.3804332  -0.8785730  -0.0363373), wk =   0.0045079
        k(  189) = (  -0.3804332  -0.7687513  -0.0726746), wk =   0.0045079
        k(  190) = (  -0.3804332  -0.6589297  -0.1090119), wk =   0.0045079
        k(  191) = (  -0.3804332  -0.5491081  -0.1453492), wk =   0.0045079
        k(  192) = (  -0.3804332  -0.4392865  -0.1816865), wk =   0.0045079
        k(  193) = (   0.5706499  -0.2196432   0.2906984), wk =   0.0045079
        k(  194) = (   0.5706499  -0.1098216   0.2543611), wk =   0.0045079
        k(  195) = (   0.5706499   0.0000000   0.2180238), wk =   0.0045079
        k(  196) = (   0.4755416  -0.1647324   0.2180238), wk =   0.0045079
        k(  197) = (   0.4755416  -0.0549108   0.1816865), wk =   0.0045079
        k(  198) = (   0.3804332  -0.1098216   0.1453492), wk =   0.0045079
        k(  199) = (  -0.0951083   0.1647324  -0.3270357), wk =   0.0045079
        k(  200) = (  -0.0951083   0.2745540  -0.3633730), wk =   0.0045079
        k(  201) = (  -0.0951083  -0.8236621   0.0000000), wk =   0.0045079
        k(  202) = (  -0.0951083  -0.7138405  -0.0363373), wk =   0.0045079
        k(  203) = (  -0.0951083  -0.6040189  -0.0726746), wk =   0.0045079
        k(  204) = (  -0.0951083  -0.4941973  -0.1090119), wk =   0.0045079
        k(  205) = (  -0.1902166   0.2196432  -0.3997103), wk =   0.0045079
        k(  206) = (  -0.1902166  -0.8785730  -0.0363373), wk =   0.0045079
        k(  207) = (  -0.1902166  -0.7687513  -0.0726746), wk =   0.0045079
        k(  208) = (  -0.1902166  -0.6589297  -0.1090119), wk =   0.0045079
        k(  209) = (  -0.1902166  -0.5491081  -0.1453492), wk =   0.0045079
        k(  210) = (  -0.2853249  -0.9334838  -0.0726746), wk =   0.0045079
        k(  211) = (  -0.2853249  -0.8236621  -0.1090119), wk =   0.0045079
        k(  212) = (  -0.2853249  -0.7138405  -0.1453492), wk =   0.0045079
        k(  213) = (  -0.2853249  -0.6040189  -0.1816865), wk =   0.0045079
        k(  214) = (   0.6657582  -0.2745540   0.2543611), wk =   0.0045079
        k(  215) = (   0.6657582  -0.1647324   0.2180238), wk =   0.0045079
        k(  216) = (   0.5706499  -0.2196432   0.1816865), wk =   0.0045079
        k(  217) = (  -0.0951083   0.1647324  -0.4360476), wk =   0.0045079
        k(  218) = (  -0.0951083  -0.9334838  -0.0726746), wk =   0.0045079
        k(  219) = (  -0.0951083  -0.8236621  -0.1090119), wk =   0.0045079
        k(  220) = (  -0.0951083  -0.7138405  -0.1453492), wk =   0.0045079
        k(  221) = (  -0.1902166  -0.9883946  -0.1090119), wk =   0.0045079
        k(  222) = (  -0.1902166  -0.8785730  -0.1453492), wk =   0.0045079
        k(  223) = (  -0.1902166  -0.7687513  -0.1816865), wk =   0.0045079
        k(  224) = (   0.7608665  -0.3294649   0.2180238), wk =   0.0045079
        k(  225) = (  -0.0951083  -1.0433054  -0.1453492), wk =   0.0045079
        k(  226) = (  -0.0951083  -0.9334838  -0.1816865), wk =   0.0045079

                       cryst. coord.
        k(    1) = (   0.0000000   0.0000000   0.0000000), wk =   0.0007513
        k(    2) = (   0.0000000   0.0000000   0.0909091), wk =   0.0045079
        k(    3) = (   0.0000000   0.0000000   0.1818182), wk =   0.0045079
        k(    4) = (   0.0000000   0.0000000   0.2727273), wk =   0.0045079
        k(    5) = (   0.0000000   0.0000000   0.3636364), wk =   0.0045079
        k(    6) = (   0.0000000   0.0000000   0.4545455), wk =   0.0045079
        k(    7) = (  -0.0000000   0.0909091   0.0909091), wk =   0.0045079
        k(    8) = (   0.0000000   0.0909091   0.1818182), wk =   0.0045079
        k(    9) = (   0.0000000   0.0909091   0.2727273), wk =   0.0045079
        k(   10) = (   0.0000000   0.0909091   0.3636364), wk =   0.0045079
        k(   11) = (   0.0000000   0.0909091   0.4545455), wk =   0.0045079
        k(   12) = (  -0.0000000   0.0909091  -0.4545455), wk =   0.0045079
        k(   13) = (  -0.0000000   0.0909091  -0.3636364), wk =   0.0045079
        k(   14) = (  -0.0000000   0.0909091  -0.2727273), wk =   0.0045079
        k(   15) = (  -0.0000000   0.0909091  -0.1818182), wk =   0.0045079
        k(   16) = (  -0.0000000   0.0909091  -0.0909091), wk =   0.0045079
        k(   17) = (  -0.0000000   0.1818182   0.1818182), wk =   0.0045079
        k(   18) = (   0.0000000   0.1818182   0.2727273), wk =   0.0045079
        k(   19) = (   0.0000000   0.1818182   0.3636364), wk =   0.0045079
        k(   20) = (   0.0000000   0.1818182   0.4545455), wk =   0.0045079
        k(   21) = (  -0.0000000   0.1818182  -0.4545455), wk =   0.0045079
        k(   22) = (  -0.0000000   0.1818182  -0.3636364), wk =   0.0045079
        k(   23) = (  -0.0000000   0.1818182  -0.2727273), wk =   0.0045079
        k(   24) = (  -0.0000000   0.1818182  -0.1818182), wk =   0.0045079
        k(   25) = (   0.0000000   0.2727273   0.2727273), wk =   0.0045079
        k(   26) = (   0.0000000   0.2727273   0.3636364), wk =   0.0045079
        k(   27) = (   0.0000000   0.2727273   0.4545455), wk =   0.0045079
        k(   28) = (  -0.0000000   0.2727273  -0.4545455), wk =   0.0045079
        k(   29) = (  -0.0000000   0.2727273  -0.3636364), wk =   0.0045079
        k(   30) = (  -0.0000000   0.2727273  -0.2727273), wk =   0.0045079
        k(   31) = (  -0.0000000   0.3636364   0.3636364), wk =   0.0045079
        k(   32) = (  -0.0000000   0.3636364   0.4545455), wk =   0.0045079
        k(   33) = (  -0.0000000   0.3636364  -0.4545455), wk =   0.0045079
        k(   34) = (  -0.0000000   0.3636364  -0.3636364), wk =   0.0045079
        k(   35) = (   0.0000000   0.4545455   0.4545455), wk =   0.0045079
        k(   36) = (  -0.0000000   0.4545455  -0.4545455), wk =   0.0045079
        k(   37) = (   0.0909091   0.0909091   0.0909091), wk =   0.0015026
        k(   38) = (   0.0909091   0.0909091   0.1818182), wk =   0.0045079
        k(   39) = (   0.0909091   0.0909091   0.2727273), wk =   0.0045079
        k(   40) = (   0.0909091   0.0909091   0.3636364), wk =   0.0045079
        k(   41) = (   0.0909091   0.0909091   0.4545455), wk =   0.0045079
        k(   42) = (   0.0909091   0.0909091  -0.4545455), wk =   0.0045079
        k(   43) = (   0.0909091   0.0909091  -0.3636364), wk =   0.0045079
        k(   44) = (   0.0909091   0.0909091  -0.2727273), wk =   0.0045079
        k(   45) = (   0.0909091   0.0909091  -0.1818182), wk =   0.0045079
        k(   46) = (   0.0909091   0.0909091  -0.0909091), wk =   0.0045079
        k(   47) = (   0.0909091   0.1818182   0.1818182), wk =   0.0045079
        k(   48) = (   0.0909091   0.1818182   0.2727273), wk =   0.0045079
        k(   49) = (   0.0909091   0.1818182   0.3636364), wk =   0.0045079
        k(   50) = (   0.0909091   0.1818182   0.4545455), wk =   0.0045079
        k(   51) = (   0.0909091   0.1818182  -0.4545455), wk =   0.0045079
        k(   52) = (   0.0909091   0.1818182  -0.3636364), wk =   0.0045079
        k(   53) = (   0.0909091   0.1818182  -0.2727273), wk =   0.0045079
        k(   54) = (   0.0909091   0.1818182  -0.1818182), wk =   0.0045079
        k(   55) = (   0.0909091   0.1818182  -0.0909091), wk =   0.0045079
        k(   56) = (   0.0909091   0.2727273   0.2727273), wk =   0.0045079
        k(   57) = (   0.0909091   0.2727273   0.3636364), wk =   0.0045079
        k(   58) = (   0.0909091   0.2727273   0.4545455), wk =   0.0045079
        k(   59) = (   0.0909091   0.2727273  -0.4545455), wk =   0.0045079
        k(   60) = (   0.0909091   0.2727273  -0.3636364), wk =   0.0045079
        k(   61) = (   0.0909091   0.2727273  -0.2727273), wk =   0.0045079
        k(   62) = (   0.0909091   0.2727273  -0.1818182), wk =   0.0045079
        k(   63) = (   0.0909091   0.2727273  -0.0909091), wk =   0.0045079
        k(   64) = (   0.0909091   0.3636364   0.3636364), wk =   0.0045079
        k(   65) = (   0.0909091   0.3636364   0.4545455), wk =   0.0045079
        k(   66) = (   0.0909091   0.3636364  -0.4545455), wk =   0.0045079
        k(   67) = (   0.0909091   0.3636364  -0.3636364), wk =   0.0045079
        k(   68) = (   0.0909091   0.3636364  -0.2727273), wk =   0.0045079
        k(   69) = (   0.0909091   0.3636364  -0.1818182), wk =   0.0045079
        k(   70) = (   0.0909091   0.3636364  -0.0909091), wk =   0.0045079
        k(   71) = (   0.0909091   0.4545455   0.4545455), wk =   0.0045079
        k(   72) = (   0.0909091   0.4545455  -0.4545455), wk =   0.0045079
        k(   73) = (   0.0909091   0.4545455  -0.3636364), wk =   0.0045079
        k(   74) = (   0.0909091   0.4545455  -0.2727273), wk =   0.0045079
        k(   75) = (   0.0909091   0.4545455  -0.1818182), wk =   0.0045079
        k(   76) = (   0.0909091   0.4545455  -0.0909091), wk =   0.0045079
        k(   77) = (   0.0909091  -0.4545455  -0.4545455), wk =   0.0045079
        k(   78) = (   0.0909091  -0.4545455  -0.3636364), wk =   0.0045079
        k(   79) = (   0.0909091  -0.4545455  -0.2727273), wk =   0.0045079
        k(   80) = (   0.0909091  -0.4545455  -0.1818182), wk =   0.0045079
        k(   81) = (   0.0909091  -0.3636364  -0.3636364), wk =   0.0045079
        k(   82) = (   0.0909091  -0.3636364  -0.2727273), wk =   0.0045079
        k(   83) = (   0.0909091  -0.3636364  -0.1818182), wk =   0.0045079
        k(   84) = (   0.0909091  -0.2727273  -0.2727273), wk =   0.0045079
        k(   85) = (   0.0909091  -0.2727273  -0.1818182), wk =   0.0045079
        k(   86) = (   0.0909091  -0.1818182  -0.1818182), wk =   0.0045079
        k(   87) = (   0.1818182   0.1818182   0.1818182), wk =   0.0015026
        k(   88) = (   0.1818182   0.1818182   0.2727273), wk =   0.0045079
        k(   89) = (   0.1818182   0.1818182   0.3636364), wk =   0.0045079
        k(   90) = (   0.1818182   0.1818182   0.4545455), wk =   0.0045079
        k(   91) = (   0.1818182   0.1818182  -0.4545455), wk =   0.0045079
        k(   92) = (   0.1818182   0.1818182  -0.3636364), wk =   0.0045079
        k(   93) = (   0.1818182   0.1818182  -0.2727273), wk =   0.0045079
        k(   94) = (   0.1818182   0.1818182  -0.1818182), wk =   0.0045079
        k(   95) = (   0.1818182   0.2727273   0.2727273), wk =   0.0045079
        k(   96) = (   0.1818182   0.2727273   0.3636364), wk =   0.0045079
        k(   97) = (   0.1818182   0.2727273   0.4545455), wk =   0.0045079
        k(   98) = (   0.1818182   0.2727273  -0.4545455), wk =   0.0045079
        k(   99) = (   0.1818182   0.2727273  -0.3636364), wk =   0.0045079
        k(  100) = (   0.1818182   0.2727273  -0.2727273), wk =   0.0045079
        k(  101) = (   0.1818182   0.2727273  -0.1818182), wk =   0.0045079
        k(  102) = (   0.1818182   0.3636364   0.3636364), wk =   0.0045079
        k(  103) = (   0.1818182   0.3636364   0.4545455), wk =   0.0045079
        k(  104) = (   0.1818182   0.3636364  -0.4545455), wk =   0.0045079
        k(  105) = (   0.1818182   0.3636364  -0.3636364), wk =   0.0045079
        k(  106) = (   0.1818182   0.3636364  -0.2727273), wk =   0.0045079
        k(  107) = (   0.1818182   0.3636364  -0.1818182), wk =   0.0045079
        k(  108) = (   0.1818182   0.4545455   0.4545455), wk =   0.0045079
        k(  109) = (   0.1818182   0.4545455  -0.4545455), wk =   0.0045079
        k(  110) = (   0.1818182   0.4545455  -0.3636364), wk =   0.0045079
        k(  111) = (   0.1818182   0.4545455  -0.2727273), wk =   0.0045079
        k(  112) = (   0.1818182   0.4545455  -0.1818182), wk =   0.0045079
        k(  113) = (   0.1818182  -0.4545455  -0.4545455), wk =   0.0045079
        k(  114) = (   0.1818182  -0.4545455  -0.3636364), wk =   0.0045079
        k(  115) = (   0.1818182  -0.4545455  -0.2727273), wk =   0.0045079
        k(  116) = (   0.1818182  -0.3636364  -0.3636364), wk =   0.0045079
        k(  117) = (   0.1818182  -0.3636364  -0.2727273), wk =   0.0045079
        k(  118) = (   0.1818182  -0.2727273  -0.2727273), wk =   0.0045079
        k(  119) = (   0.2727273   0.2727273   0.2727273), wk =   0.0015026
        k(  120) = (   0.2727273   0.2727273   0.3636364), wk =   0.0045079
        k(  121) = (   0.2727273   0.2727273   0.4545455), wk =   0.0045079
        k(  122) = (   0.2727273   0.2727273  -0.4545455), wk =   0.0045079
        k(  123) = (   0.2727273   0.2727273  -0.3636364), wk =   0.0045079
        k(  124) = (   0.2727273   0.2727273  -0.2727273), wk =   0.0045079
        k(  125) = (   0.2727273   0.3636364   0.3636364), wk =   0.0045079
        k(  126) = (   0.2727273   0.3636364   0.4545455), wk =   0.0045079
        k(  127) = (   0.2727273   0.3636364  -0.4545455), wk =   0.0045079
        k(  128) = (   0.2727273   0.3636364  -0.3636364), wk =   0.0045079
        k(  129) = (   0.2727273   0.3636364  -0.2727273), wk =   0.0045079
        k(  130) = (   0.2727273   0.4545455   0.4545455), wk =   0.0045079
        k(  131) = (   0.2727273   0.4545455  -0.4545455), wk =   0.0045079
        k(  132) = (   0.2727273   0.4545455  -0.3636364), wk =   0.0045079
        k(  133) = (   0.2727273   0.4545455  -0.2727273), wk =   0.0045079
        k(  134) = (   0.2727273  -0.4545455  -0.4545455), wk =   0.0045079
        k(  135) = (   0.2727273  -0.4545455  -0.3636364), wk =   0.0045079
        k(  136) = (   0.2727273  -0.3636364  -0.3636364), wk =   0.0045079
        k(  137) = (   0.3636364   0.3636364   0.3636364), wk =   0.0015026
        k(  138) = (   0.3636364   0.3636364   0.4545455), wk =   0.0045079
        k(  139) = (   0.3636364   0.3636364  -0.4545455), wk =   0.0045079
        k(  140) = (   0.3636364   0.3636364  -0.3636364), wk =   0.0045079
        k(  141) = (   0.3636364   0.4545455   0.4545455), wk =   0.0045079
        k(  142) = (   0.3636364   0.4545455  -0.4545455), wk =   0.0045079
        k(  143) = (   0.3636364   0.4545455  -0.3636364), wk =   0.0045079
        k(  144) = (   0.3636364  -0.4545455  -0.4545455), wk =   0.0045079
        k(  145) = (   0.4545455   0.4545455   0.4545455), wk =   0.0015026
        k(  146) = (   0.4545455   0.4545455  -0.4545455), wk =   0.0045079
        k(  147) = (  -0.0909091  -0.0000000  -0.1818182), wk =   0.0045079
        k(  148) = (  -0.0909091  -0.0000000  -0.2727273), wk =   0.0045079
        k(  149) = (  -0.0909091  -0.0000000  -0.3636364), wk =   0.0045079
        k(  150) = (  -0.0909091  -0.0000000  -0.4545455), wk =   0.0045079
        k(  151) = (  -0.0909091   0.0000000   0.4545455), wk =   0.0045079
        k(  152) = (  -0.0909091   0.0000000   0.3636364), wk =   0.0045079
        k(  153) = (  -0.0909091   0.0000000   0.2727273), wk =   0.0045079
        k(  154) = (  -0.0909091   0.0000000   0.1818182), wk =   0.0045079
        k(  155) = (  -0.1818182  -0.0000000  -0.2727273), wk =   0.0045079
        k(  156) = (  -0.1818182  -0.0000000  -0.3636364), wk =   0.0045079
        k(  157) = (  -0.1818182  -0.0000000  -0.4545455), wk =   0.0045079
        k(  158) = (  -0.1818182   0.0000000   0.4545455), wk =   0.0045079
        k(  159) = (  -0.1818182   0.0000000   0.3636364), wk =   0.0045079
        k(  160) = (  -0.1818182   0.0000000   0.2727273), wk =   0.0045079
        k(  161) = (  -0.2727273  -0.0000000  -0.3636364), wk =   0.0045079
        k(  162) = (  -0.2727273  -0.0000000  -0.4545455), wk =   0.0045079
        k(  163) = (  -0.2727273   0.0000000   0.4545455), wk =   0.0045079
        k(  164) = (  -0.2727273   0.0000000   0.3636364), wk =   0.0045079
        k(  165) = (  -0.3636364   0.0000000  -0.4545455), wk =   0.0045079
        k(  166) = (  -0.3636364   0.0000000   0.4545455), wk =   0.0045079
        k(  167) = (  -0.1818182  -0.0909091  -0.2727273), wk =   0.0045079
        k(  168) = (  -0.1818182  -0.0909091  -0.3636364), wk =   0.0045079
        k(  169) = (  -0.1818182  -0.0909091  -0.4545455), wk =   0.0045079
        k(  170) = (  -0.1818182  -0.0909091   0.4545455), wk =   0.0045079
        k(  171) = (  -0.1818182  -0.0909091   0.3636364), wk =   0.0045079
        k(  172) = (  -0.1818182  -0.0909091   0.2727273), wk =   0.0045079
        k(  173) = (  -0.1818182  -0.0909091   0.1818182), wk =   0.0045079
        k(  174) = (  -0.1818182  -0.0909091   0.0909091), wk =   0.0045079
        k(  175) = (  -0.2727273  -0.0909091  -0.3636364), wk =   0.0045079
        k(  176) = (  -0.2727273  -0.0909091  -0.4545455), wk =   0.0045079
        k(  177) = (  -0.2727273  -0.0909091   0.4545455), wk =   0.0045079
        k(  178) = (  -0.2727273  -0.0909091   0.3636364), wk =   0.0045079
        k(  179) = (  -0.2727273  -0.0909091   0.2727273), wk =   0.0045079
        k(  180) = (  -0.2727273  -0.0909091   0.1818182), wk =   0.0045079
        k(  181) = (  -0.2727273  -0.0909091   0.0909091), wk =   0.0045079
        k(  182) = (  -0.3636364  -0.0909091  -0.4545455), wk =   0.0045079
        k(  183) = (  -0.3636364  -0.0909091   0.4545455), wk =   0.0045079
        k(  184) = (  -0.3636364  -0.0909091   0.3636364), wk =   0.0045079
        k(  185) = (  -0.3636364  -0.0909091   0.2727273), wk =   0.0045079
        k(  186) = (  -0.3636364  -0.0909091   0.1818182), wk =   0.0045079
        k(  187) = (  -0.3636364  -0.0909091   0.0909091), wk =   0.0045079
        k(  188) = (  -0.4545455  -0.0909091   0.4545455), wk =   0.0045079
        k(  189) = (  -0.4545455  -0.0909091   0.3636364), wk =   0.0045079
        k(  190) = (  -0.4545455  -0.0909091   0.2727273), wk =   0.0045079
        k(  191) = (  -0.4545455  -0.0909091   0.1818182), wk =   0.0045079
        k(  192) = (  -0.4545455  -0.0909091   0.0909091), wk =   0.0045079
        k(  193) = (   0.4545455  -0.0909091   0.3636364), wk =   0.0045079
        k(  194) = (   0.4545455  -0.0909091   0.2727273), wk =   0.0045079
        k(  195) = (   0.4545455  -0.0909091   0.1818182), wk =   0.0045079
        k(  196) = (   0.3636364  -0.0909091   0.2727273), wk =   0.0045079
        k(  197) = (   0.3636364  -0.0909091   0.1818182), wk =   0.0045079
        k(  198) = (   0.2727273  -0.0909091   0.1818182), wk =   0.0045079
        k(  199) = (  -0.2727273  -0.1818182  -0.3636364), wk =   0.0045079
        k(  200) = (  -0.2727273  -0.1818182  -0.4545455), wk =   0.0045079
        k(  201) = (  -0.2727273  -0.1818182   0.4545455), wk =   0.0045079
        k(  202) = (  -0.2727273  -0.1818182   0.3636364), wk =   0.0045079
        k(  203) = (  -0.2727273  -0.1818182   0.2727273), wk =   0.0045079
        k(  204) = (  -0.2727273  -0.1818182   0.1818182), wk =   0.0045079
        k(  205) = (  -0.3636364  -0.1818182  -0.4545455), wk =   0.0045079
        k(  206) = (  -0.3636364  -0.1818182   0.4545455), wk =   0.0045079
        k(  207) = (  -0.3636364  -0.1818182   0.3636364), wk =   0.0045079
        k(  208) = (  -0.3636364  -0.1818182   0.2727273), wk =   0.0045079
        k(  209) = (  -0.3636364  -0.1818182   0.1818182), wk =   0.0045079
        k(  210) = (  -0.4545455  -0.1818182   0.4545455), wk =   0.0045079
        k(  211) = (  -0.4545455  -0.1818182   0.3636364), wk =   0.0045079
        k(  212) = (  -0.4545455  -0.1818182   0.2727273), wk =   0.0045079
        k(  213) = (  -0.4545455  -0.1818182   0.1818182), wk =   0.0045079
        k(  214) = (   0.4545455  -0.1818182   0.3636364), wk =   0.0045079
        k(  215) = (   0.4545455  -0.1818182   0.2727273), wk =   0.0045079
        k(  216) = (   0.3636364  -0.1818182   0.2727273), wk =   0.0045079
        k(  217) = (  -0.3636364  -0.2727273  -0.4545455), wk =   0.0045079
        k(  218) = (  -0.3636364  -0.2727273   0.4545455), wk =   0.0045079
        k(  219) = (  -0.3636364  -0.2727273   0.3636364), wk =   0.0045079
        k(  220) = (  -0.3636364  -0.2727273   0.2727273), wk =   0.0045079
        k(  221) = (  -0.4545455  -0.2727273   0.4545455), wk =   0.0045079
        k(  222) = (  -0.4545455  -0.2727273   0.3636364), wk =   0.0045079
        k(  223) = (  -0.4545455  -0.2727273   0.2727273), wk =   0.0045079
        k(  224) = (   0.4545455  -0.2727273   0.3636364), wk =   0.0045079
        k(  225) = (  -0.4545455  -0.3636364   0.4545455), wk =   0.0045079
        k(  226) = (  -0.4545455  -0.3636364   0.3636364), wk =   0.0045079

     Dense  grid:   390693 G-vectors     FFT dimensions: ( 108, 108, 108)

     Smooth grid:    75123 G-vectors     FFT dimensions: (  64,  64,  64)

     Dynamical RAM for                 wfc:       6.60 MB

     Dynamical RAM for     wfc (w. buffer):    2987.89 MB

     Dynamical RAM for           str. fact:      17.88 MB

     Dynamical RAM for           local pot:       0.00 MB

     Dynamical RAM for          nlocal pot:      12.04 MB

     Dynamical RAM for                qrad:       7.91 MB

     Dynamical RAM for          rho,v,vnew:      93.43 MB

     Dynamical RAM for               rhoin:      31.14 MB

     Dynamical RAM for            rho*nmix:     190.77 MB

     Dynamical RAM for           G-vectors:      22.93 MB

     Dynamical RAM for          h,s,v(r/c):       0.39 MB

     Dynamical RAM for          <psi|beta>:       0.06 MB

     Dynamical RAM for                 psi:      13.19 MB

     Dynamical RAM for                hpsi:      13.19 MB

     Dynamical RAM for                spsi:      13.19 MB

     Dynamical RAM for      wfcinit/wfcrot:      13.24 MB

     Dynamical RAM for           addusdens:    1150.57 MB

     Dynamical RAM for          addusforce:    1210.23 MB

     Dynamical RAM for         addusstress:    1207.20 MB

     Estimated static dynamical RAM per process >       3.18 GB

     Estimated max dynamical RAM per process >       4.55 GB

     Atomic positions and unit cell read from directory:
     ./out/aiida.save/
 

     Check: negative core charge=   -0.000005
     Generating pointlists ...
     new r_m :   0.1427 (alat units)  1.4209 (a.u.) for type    1
     new r_m :   0.1545 (alat units)  1.5385 (a.u.) for type    2
     new r_m :   0.1427 (alat units)  1.4209 (a.u.) for type    3

     The initial density is read from file :
     ./out/aiida.save/charge-density


     negative rho (up, down):  0.000E+00 3.224E-04
     Starting wfcs from file
     Checking if some PAW data can be deallocated... 

     total cpu time spent up to now is        7.8 secs

     per-process dynamical memory:   642.0 Mb

     Self-consistent Calculation
[tb_dev] Currently allocated     6.10E-05 Mbytes, locked:    0 /   2
[tb_pin] Currently allocated     0.00E+00 Mbytes, locked:    0 /   0

     iteration #  1     ecut=    90.00 Ry     beta= 0.20
     Davidson diagonalization with overlap

---- Real-time Memory Report at c_bands before calling an iterative solver
           849 MiB given to the printing process from OS
           656 MiB allocation reported by mallinfo(arena+hblkhd)
         58889 MiB available memory on the node where the printing process lives
     GPU memory used/free/total (MiB): 1360 / 14920 / 16280
------------------
     ethr =  1.00E-05,  avg # of iterations =  3.9

     Threshold (ethr) on eigenvalues was too large:
     Diagonalizing with lowered threshold

     Davidson diagonalization with overlap

---- Real-time Memory Report at c_bands before calling an iterative solver
          4206 MiB given to the printing process from OS
          -116 MiB allocation reported by mallinfo(arena+hblkhd)
         51799 MiB available memory on the node where the printing process lives
     GPU memory used/free/total (MiB): 3260 / 13020 / 16280
------------------
     ethr =  3.52E-07,  avg # of iterations =  2.9

     negative rho (up, down):  0.000E+00 3.216E-04

     total cpu time spent up to now is       62.8 secs

     total energy              =    -961.18988726 Ry
     estimated scf accuracy    <       0.00025854 Ry

     total magnetization       =     5.69 Bohr mag/cell
     absolute magnetization    =     5.72 Bohr mag/cell
[tb_dev] Currently allocated     1.30E+01 Mbytes, locked:    0 /  15
[tb_pin] Currently allocated     0.00E+00 Mbytes, locked:    0 /   0

     iteration #  2     ecut=    90.00 Ry     beta= 0.20
     Davidson diagonalization with overlap

---- Real-time Memory Report at c_bands before calling an iterative solver
          4293 MiB given to the printing process from OS
          -100 MiB allocation reported by mallinfo(arena+hblkhd)
         51773 MiB available memory on the node where the printing process lives
     GPU memory used/free/total (MiB): 3270 / 13010 / 16280
------------------
     ethr =  3.40E-07,  avg # of iterations =  1.0

     negative rho (up, down):  0.000E+00 3.221E-04

     total cpu time spent up to now is       81.5 secs

     total energy              =    -961.18991222 Ry
     estimated scf accuracy    <       0.00029950 Ry

     total magnetization       =     5.70 Bohr mag/cell
     absolute magnetization    =     5.73 Bohr mag/cell
[tb_dev] Currently allocated     1.30E+01 Mbytes, locked:    0 /  15
[tb_pin] Currently allocated     0.00E+00 Mbytes, locked:    0 /   0

     iteration #  3     ecut=    90.00 Ry     beta= 0.20
     Davidson diagonalization with overlap

---- Real-time Memory Report at c_bands before calling an iterative solver
          4364 MiB given to the printing process from OS
           -93 MiB allocation reported by mallinfo(arena+hblkhd)
         51766 MiB available memory on the node where the printing process lives
     GPU memory used/free/total (MiB): 3270 / 13010 / 16280
------------------
     ethr =  3.40E-07,  avg # of iterations =  1.0

     negative rho (up, down):  0.000E+00 3.204E-04

     total cpu time spent up to now is      100.2 secs

     total energy              =    -961.19001885 Ry
     estimated scf accuracy    <       0.00026414 Ry

     total magnetization       =     5.67 Bohr mag/cell
     absolute magnetization    =     5.70 Bohr mag/cell
[tb_dev] Currently allocated     1.30E+01 Mbytes, locked:    0 /  15
[tb_pin] Currently allocated     0.00E+00 Mbytes, locked:    0 /   0

     iteration #  4     ecut=    90.00 Ry     beta= 0.20
     Davidson diagonalization with overlap

---- Real-time Memory Report at c_bands before calling an iterative solver
          4435 MiB given to the printing process from OS
           -86 MiB allocation reported by mallinfo(arena+hblkhd)
         51760 MiB available memory on the node where the printing process lives
     GPU memory used/free/total (MiB): 3270 / 13010 / 16280
------------------
     ethr =  3.40E-07,  avg # of iterations =  1.0

     negative rho (up, down):  0.000E+00 3.174E-04

     total cpu time spent up to now is      118.9 secs

     total energy              =    -961.19012089 Ry
     estimated scf accuracy    <       0.00021952 Ry

     total magnetization       =     5.63 Bohr mag/cell
     absolute magnetization    =     5.66 Bohr mag/cell
[tb_dev] Currently allocated     1.30E+01 Mbytes, locked:    0 /  15
[tb_pin] Currently allocated     0.00E+00 Mbytes, locked:    0 /   0

     iteration #  5     ecut=    90.00 Ry     beta= 0.20
     Davidson diagonalization with overlap

---- Real-time Memory Report at c_bands before calling an iterative solver
          4506 MiB given to the printing process from OS
           -80 MiB allocation reported by mallinfo(arena+hblkhd)
         51753 MiB available memory on the node where the printing process lives
     GPU memory used/free/total (MiB): 3270 / 13010 / 16280
------------------
     ethr =  2.89E-07,  avg # of iterations =  1.5

     negative rho (up, down):  0.000E+00 3.304E-04

     total cpu time spent up to now is      138.7 secs

     total energy              =    -961.18877747 Ry
     estimated scf accuracy    <       0.00022459 Ry

     total magnetization       =     5.56 Bohr mag/cell
     absolute magnetization    =     5.59 Bohr mag/cell
[tb_dev] Currently allocated     1.30E+01 Mbytes, locked:    0 /  15
[tb_pin] Currently allocated     0.00E+00 Mbytes, locked:    0 /   0

     iteration #  6     ecut=    90.00 Ry     beta= 0.20
     Davidson diagonalization with overlap

---- Real-time Memory Report at c_bands before calling an iterative solver
          4577 MiB given to the printing process from OS
           -73 MiB allocation reported by mallinfo(arena+hblkhd)
         51748 MiB available memory on the node where the printing process lives
     GPU memory used/free/total (MiB): 3270 / 13010 / 16280
------------------
     ethr =  2.89E-07,  avg # of iterations =  2.5

     negative rho (up, down):  0.000E+00 3.092E-04

     total cpu time spent up to now is      164.2 secs

     total energy              =    -961.18870256 Ry
     estimated scf accuracy    <       0.00047001 Ry

     total magnetization       =     5.78 Bohr mag/cell
     absolute magnetization    =     5.81 Bohr mag/cell
[tb_dev] Currently allocated     1.30E+01 Mbytes, locked:    0 /  15
[tb_pin] Currently allocated     0.00E+00 Mbytes, locked:    0 /   0

     iteration #  7     ecut=    90.00 Ry     beta= 0.20
     Davidson diagonalization with overlap

---- Real-time Memory Report at c_bands before calling an iterative solver
          4648 MiB given to the printing process from OS
           -66 MiB allocation reported by mallinfo(arena+hblkhd)
         51741 MiB available memory on the node where the printing process lives
     GPU memory used/free/total (MiB): 3330 / 12950 / 16280
------------------
     ethr =  2.89E-07,  avg # of iterations =  2.5

     negative rho (up, down):  0.000E+00 3.189E-04

     total cpu time spent up to now is      190.4 secs

     total energy              =    -961.18969420 Ry
     estimated scf accuracy    <       0.00026787 Ry

     total magnetization       =     5.44 Bohr mag/cell
     absolute magnetization    =     5.47 Bohr mag/cell
[tb_dev] Currently allocated     1.30E+01 Mbytes, locked:    0 /  15
[tb_pin] Currently allocated     0.00E+00 Mbytes, locked:    0 /   0

     iteration #  8     ecut=    90.00 Ry     beta= 0.20
     Davidson diagonalization with overlap

---- Real-time Memory Report at c_bands before calling an iterative solver
          4727 MiB given to the printing process from OS
           -57 MiB allocation reported by mallinfo(arena+hblkhd)
         51727 MiB available memory on the node where the printing process lives
     GPU memory used/free/total (MiB): 3330 / 12950 / 16280
------------------
     ethr =  2.89E-07,  avg # of iterations =  2.0

     negative rho (up, down):  0.000E+00 2.974E-04

     total cpu time spent up to now is      212.5 secs

     total energy              =    -961.18885457 Ry
     estimated scf accuracy    <       0.00030228 Ry

     total magnetization       =     5.60 Bohr mag/cell
     absolute magnetization    =     5.63 Bohr mag/cell
[tb_dev] Currently allocated     1.30E+01 Mbytes, locked:    0 /  15
[tb_pin] Currently allocated     0.00E+00 Mbytes, locked:    0 /   0

     iteration #  9     ecut=    90.00 Ry     beta= 0.20
     Davidson diagonalization with overlap

---- Real-time Memory Report at c_bands before calling an iterative solver
          4775 MiB given to the printing process from OS
           -51 MiB allocation reported by mallinfo(arena+hblkhd)
         51721 MiB available memory on the node where the printing process lives
     GPU memory used/free/total (MiB): 3330 / 12950 / 16280
------------------
     ethr =  2.89E-07,  avg # of iterations =  2.5

     negative rho (up, down):  0.000E+00 3.285E-04

     total cpu time spent up to now is      238.4 secs

     total energy              =    -961.18501325 Ry
     estimated scf accuracy    <       0.00055921 Ry

     total magnetization       =     5.21 Bohr mag/cell
     absolute magnetization    =     5.24 Bohr mag/cell
[tb_dev] Currently allocated     1.30E+01 Mbytes, locked:    0 /  15
[tb_pin] Currently allocated     0.00E+00 Mbytes, locked:    0 /   0

     iteration # 10     ecut=    90.00 Ry     beta= 0.20
     Davidson diagonalization with overlap

---- Real-time Memory Report at c_bands before calling an iterative solver
          4801 MiB given to the printing process from OS
           -37 MiB allocation reported by mallinfo(arena+hblkhd)
         51713 MiB available memory on the node where the printing process lives
     GPU memory used/free/total (MiB): 3330 / 12950 / 16280
------------------
     ethr =  2.89E-07,  avg # of iterations =  3.0

     negative rho (up, down):  0.000E+00 2.962E-04

     total cpu time spent up to now is      266.4 secs

     total energy              =    -961.18667948 Ry
     estimated scf accuracy    <       0.00045293 Ry

     total magnetization       =     5.75 Bohr mag/cell
     absolute magnetization    =     5.79 Bohr mag/cell
[tb_dev] Currently allocated     1.30E+01 Mbytes, locked:    0 /  15
[tb_pin] Currently allocated     0.00E+00 Mbytes, locked:    0 /   0

     iteration # 11     ecut=    90.00 Ry     beta= 0.20
     Davidson diagonalization with overlap

---- Real-time Memory Report at c_bands before calling an iterative solver
          4829 MiB given to the printing process from OS
           -35 MiB allocation reported by mallinfo(arena+hblkhd)
         51714 MiB available memory on the node where the printing process lives
     GPU memory used/free/total (MiB): 3330 / 12950 / 16280
------------------
     ethr =  2.89E-07,  avg # of iterations =  3.3

     negative rho (up, down):  0.000E+00 3.018E-04

     total cpu time spent up to now is      295.1 secs

     total energy              =    -961.19048163 Ry
     estimated scf accuracy    <       0.00049073 Ry

     total magnetization       =     5.20 Bohr mag/cell
     absolute magnetization    =     5.23 Bohr mag/cell
[tb_dev] Currently allocated     1.30E+01 Mbytes, locked:    0 /  15
[tb_pin] Currently allocated     0.00E+00 Mbytes, locked:    0 /   0

     iteration # 12     ecut=    90.00 Ry     beta= 0.20
     Davidson diagonalization with overlap

---- Real-time Memory Report at c_bands before calling an iterative solver
          4851 MiB given to the printing process from OS
           -33 MiB allocation reported by mallinfo(arena+hblkhd)
         51712 MiB available memory on the node where the printing process lives
     GPU memory used/free/total (MiB): 3330 / 12950 / 16280
------------------
     ethr =  2.89E-07,  avg # of iterations =  2.0

     negative rho (up, down):  0.000E+00 4.176E-04

     total cpu time spent up to now is      315.8 secs

     total energy              =    -961.12574810 Ry
     estimated scf accuracy    <       0.00030731 Ry

     total magnetization       =     5.32 Bohr mag/cell
     absolute magnetization    =     5.35 Bohr mag/cell
[tb_dev] Currently allocated     1.30E+01 Mbytes, locked:    0 /  15
[tb_pin] Currently allocated     0.00E+00 Mbytes, locked:    0 /   0

     iteration # 13     ecut=    90.00 Ry     beta= 0.20
     Davidson diagonalization with overlap

---- Real-time Memory Report at c_bands before calling an iterative solver
          4874 MiB given to the printing process from OS
           -31 MiB allocation reported by mallinfo(arena+hblkhd)
         51708 MiB available memory on the node where the printing process lives
     GPU memory used/free/total (MiB): 3330 / 12950 / 16280
------------------
     ethr =  2.89E-07,  avg # of iterations =  6.8

     negative rho (up, down):  0.000E+00 4.219E-04

     total cpu time spent up to now is      360.6 secs

     total energy              =    -961.16973002 Ry
     estimated scf accuracy    <       0.24825762 Ry

     total magnetization       =     6.29 Bohr mag/cell
     absolute magnetization    =     6.35 Bohr mag/cell
[tb_dev] Currently allocated     1.30E+01 Mbytes, locked:    0 /  15
[tb_pin] Currently allocated     0.00E+00 Mbytes, locked:    0 /   0

     iteration # 14     ecut=    90.00 Ry     beta= 0.20
     Davidson diagonalization with overlap

---- Real-time Memory Report at c_bands before calling an iterative solver
          4895 MiB given to the printing process from OS
           -29 MiB allocation reported by mallinfo(arena+hblkhd)
         51706 MiB available memory on the node where the printing process lives
     GPU memory used/free/total (MiB): 3330 / 12950 / 16280
------------------
     ethr =  2.89E-07,  avg # of iterations =  1.6

     negative rho (up, down):  0.000E+00 4.202E-04

     total cpu time spent up to now is      380.4 secs

     total energy              =    -961.17024277 Ry
     estimated scf accuracy    <       0.30318672 Ry

     total magnetization       =     6.39 Bohr mag/cell
     absolute magnetization    =     6.45 Bohr mag/cell
[tb_dev] Currently allocated     1.30E+01 Mbytes, locked:    0 /  15
[tb_pin] Currently allocated     0.00E+00 Mbytes, locked:    0 /   0

     iteration # 15     ecut=    90.00 Ry     beta= 0.20
     Davidson diagonalization with overlap

---- Real-time Memory Report at c_bands before calling an iterative solver
          4917 MiB given to the printing process from OS
           -27 MiB allocation reported by mallinfo(arena+hblkhd)
         51703 MiB available memory on the node where the printing process lives
     GPU memory used/free/total (MiB): 3330 / 12950 / 16280
------------------
     ethr =  2.89E-07,  avg # of iterations =  1.0

     negative rho (up, down):  0.000E+00 4.039E-04

     total cpu time spent up to now is      398.8 secs

     total energy              =    -961.17267515 Ry
     estimated scf accuracy    <       0.28311747 Ry

     total magnetization       =     6.36 Bohr mag/cell
     absolute magnetization    =     6.41 Bohr mag/cell
[tb_dev] Currently allocated     1.30E+01 Mbytes, locked:    0 /  15
[tb_pin] Currently allocated     0.00E+00 Mbytes, locked:    0 /   0

     iteration # 16     ecut=    90.00 Ry     beta= 0.20
     Davidson diagonalization with overlap

---- Real-time Memory Report at c_bands before calling an iterative solver
          4939 MiB given to the printing process from OS
           -25 MiB allocation reported by mallinfo(arena+hblkhd)
         51702 MiB available memory on the node where the printing process lives
     GPU memory used/free/total (MiB): 3330 / 12950 / 16280
------------------
     ethr =  2.89E-07,  avg # of iterations =  2.5

     negative rho (up, down):  0.000E+00 3.870E-04

     total cpu time spent up to now is      424.3 secs

     total energy              =    -961.17857714 Ry
     estimated scf accuracy    <       0.13852881 Ry

     total magnetization       =     6.00 Bohr mag/cell
     absolute magnetization    =     6.07 Bohr mag/cell
[tb_dev] Currently allocated     1.30E+01 Mbytes, locked:    0 /  15
[tb_pin] Currently allocated     0.00E+00 Mbytes, locked:    0 /   0

     iteration # 17     ecut=    90.00 Ry     beta= 0.20
     Davidson diagonalization with overlap

---- Real-time Memory Report at c_bands before calling an iterative solver
          4962 MiB given to the printing process from OS
           -23 MiB allocation reported by mallinfo(arena+hblkhd)
         51701 MiB available memory on the node where the printing process lives
     GPU memory used/free/total (MiB): 3330 / 12950 / 16280
------------------
     ethr =  2.89E-07,  avg # of iterations =  2.5

     negative rho (up, down):  0.000E+00 3.749E-04

     total cpu time spent up to now is      450.0 secs

     total energy              =    -961.18387488 Ry
     estimated scf accuracy    <       0.06448521 Ry

     total magnetization       =     5.81 Bohr mag/cell
     absolute magnetization    =     5.87 Bohr mag/cell
[tb_dev] Currently allocated     1.30E+01 Mbytes, locked:    0 /  15
[tb_pin] Currently allocated     0.00E+00 Mbytes, locked:    0 /   0

     iteration # 18     ecut=    90.00 Ry     beta= 0.20
     Davidson diagonalization with overlap

---- Real-time Memory Report at c_bands before calling an iterative solver
          4983 MiB given to the printing process from OS
           -21 MiB allocation reported by mallinfo(arena+hblkhd)
         51703 MiB available memory on the node where the printing process lives
     GPU memory used/free/total (MiB): 3330 / 12950 / 16280
------------------
     ethr =  2.89E-07,  avg # of iterations =  2.0

     negative rho (up, down):  0.000E+00 3.885E-04

     total cpu time spent up to now is      473.6 secs

     total energy              =    -961.17990127 Ry
     estimated scf accuracy    <       0.03096556 Ry

     total magnetization       =     5.99 Bohr mag/cell
     absolute magnetization    =     6.04 Bohr mag/cell
[tb_dev] Currently allocated     1.30E+01 Mbytes, locked:    0 /  15
[tb_pin] Currently allocated     0.00E+00 Mbytes, locked:    0 /   0

     iteration # 19     ecut=    90.00 Ry     beta= 0.20
     Davidson diagonalization with overlap

---- Real-time Memory Report at c_bands before calling an iterative solver
          4997 MiB given to the printing process from OS
           -19 MiB allocation reported by mallinfo(arena+hblkhd)
         51698 MiB available memory on the node where the printing process lives
     GPU memory used/free/total (MiB): 3330 / 12950 / 16280
------------------
     ethr =  2.89E-07,  avg # of iterations =  2.0

     negative rho (up, down):  0.000E+00 3.603E-04

     total cpu time spent up to now is      497.1 secs

     total energy              =    -961.18605386 Ry
     estimated scf accuracy    <       0.06888874 Ry

     total magnetization       =     5.79 Bohr mag/cell
     absolute magnetization    =     5.86 Bohr mag/cell
[tb_dev] Currently allocated     1.30E+01 Mbytes, locked:    0 /  15
[tb_pin] Currently allocated     0.00E+00 Mbytes, locked:    0 /   0

     iteration # 20     ecut=    90.00 Ry     beta= 0.20
     Davidson diagonalization with overlap

---- Real-time Memory Report at c_bands before calling an iterative solver
          4999 MiB given to the printing process from OS
           -17 MiB allocation reported by mallinfo(arena+hblkhd)
         51697 MiB available memory on the node where the printing process lives
     GPU memory used/free/total (MiB): 3330 / 12950 / 16280
------------------
     ethr =  2.89E-07,  avg # of iterations =  3.0

     negative rho (up, down):  0.000E+00 2.776E-04

     total cpu time spent up to now is      524.8 secs

     total energy              =    -961.16707798 Ry
     estimated scf accuracy    <       0.01172414 Ry

     total magnetization       =     5.99 Bohr mag/cell
     absolute magnetization    =     6.03 Bohr mag/cell
[tb_dev] Currently allocated     1.30E+01 Mbytes, locked:    0 /  15
[tb_pin] Currently allocated     0.00E+00 Mbytes, locked:    0 /   0

     iteration # 21     ecut=    90.00 Ry     beta= 0.20
     Davidson diagonalization with overlap

---- Real-time Memory Report at c_bands before calling an iterative solver
          5002 MiB given to the printing process from OS
           -15 MiB allocation reported by mallinfo(arena+hblkhd)
         51684 MiB available memory on the node where the printing process lives
     GPU memory used/free/total (MiB): 3330 / 12950 / 16280
------------------
     c_bands:  1 eigenvalues not converged
     ethr =  2.89E-07,  avg # of iterations =  6.8

     negative rho (up, down):  0.000E+00 4.351E-04

     total cpu time spent up to now is      566.5 secs

     total energy              =    -961.05393980 Ry
     estimated scf accuracy    <       0.00225849 Ry

     total magnetization       =     4.71 Bohr mag/cell
     absolute magnetization    =     4.75 Bohr mag/cell
[tb_dev] Currently allocated     1.30E+01 Mbytes, locked:    0 /  15
[tb_pin] Currently allocated     0.00E+00 Mbytes, locked:    0 /   0

     iteration # 22     ecut=    90.00 Ry     beta= 0.20
     Davidson diagonalization with overlap

---- Real-time Memory Report at c_bands before calling an iterative solver
          5009 MiB given to the printing process from OS
           -13 MiB allocation reported by mallinfo(arena+hblkhd)
         51685 MiB available memory on the node where the printing process lives
     GPU memory used/free/total (MiB): 3330 / 12950 / 16280
------------------
     c_bands:  1 eigenvalues not converged
     ethr =  2.89E-07,  avg # of iterations =  7.4

     negative rho (up, down):  0.000E+00 4.291E-04

     total cpu time spent up to now is      613.6 secs

     total energy              =    -961.16872295 Ry
     estimated scf accuracy    <       0.63258593 Ry

     total magnetization       =     6.77 Bohr mag/cell
     absolute magnetization    =     6.82 Bohr mag/cell
[tb_dev] Currently allocated     1.30E+01 Mbytes, locked:    0 /  15
[tb_pin] Currently allocated     0.00E+00 Mbytes, locked:    0 /   0

     iteration # 23     ecut=    90.00 Ry     beta= 0.20
     Davidson diagonalization with overlap

---- Real-time Memory Report at c_bands before calling an iterative solver
          5011 MiB given to the printing process from OS
           -11 MiB allocation reported by mallinfo(arena+hblkhd)
         51680 MiB available memory on the node where the printing process lives
     GPU memory used/free/total (MiB): 3330 / 12950 / 16280
------------------
     ethr =  2.89E-07,  avg # of iterations =  1.5

     negative rho (up, down):  0.000E+00 3.979E-04

     total cpu time spent up to now is      633.7 secs

     total energy              =    -961.16916741 Ry
     estimated scf accuracy    <       0.51035227 Ry

     total magnetization       =     6.64 Bohr mag/cell
     absolute magnetization    =     6.69 Bohr mag/cell
[tb_dev] Currently allocated     1.30E+01 Mbytes, locked:    0 /  15
[tb_pin] Currently allocated     0.00E+00 Mbytes, locked:    0 /   0

     iteration # 24     ecut=    90.00 Ry     beta= 0.20
     Davidson diagonalization with overlap

---- Real-time Memory Report at c_bands before calling an iterative solver
          5013 MiB given to the printing process from OS
            -9 MiB allocation reported by mallinfo(arena+hblkhd)
         51680 MiB available memory on the node where the printing process lives
     GPU memory used/free/total (MiB): 3330 / 12950 / 16280
------------------
     ethr =  2.89E-07,  avg # of iterations =  4.0

     negative rho (up, down):  0.000E+00 2.532E-04

     total cpu time spent up to now is      664.6 secs

     total energy              =    -961.08705970 Ry
     estimated scf accuracy    <       0.19091789 Ry

     total magnetization       =     6.18 Bohr mag/cell
     absolute magnetization    =     6.24 Bohr mag/cell
[tb_dev] Currently allocated     1.30E+01 Mbytes, locked:    0 /  15
[tb_pin] Currently allocated     0.00E+00 Mbytes, locked:    0 /   0

     iteration # 25     ecut=    90.00 Ry     beta= 0.20
     Davidson diagonalization with overlap

---- Real-time Memory Report at c_bands before calling an iterative solver
          5016 MiB given to the printing process from OS
            -7 MiB allocation reported by mallinfo(arena+hblkhd)
         51678 MiB available memory on the node where the printing process lives
     GPU memory used/free/total (MiB): 3330 / 12950 / 16280
------------------
     c_bands:  1 eigenvalues not converged
     ethr =  2.89E-07,  avg # of iterations =  7.8

     negative rho (up, down):  0.000E+00 2.935E-04

     total cpu time spent up to now is      712.7 secs

     total energy              =    -961.17013078 Ry
     estimated scf accuracy    <       0.00752832 Ry

     total magnetization       =     4.01 Bohr mag/cell
     absolute magnetization    =     4.63 Bohr mag/cell
[tb_dev] Currently allocated     1.30E+01 Mbytes, locked:    0 /  15
[tb_pin] Currently allocated     0.00E+00 Mbytes, locked:    0 /   0

     iteration # 26     ecut=    90.00 Ry     beta= 0.20
     Davidson diagonalization with overlap

---- Real-time Memory Report at c_bands before calling an iterative solver
          5017 MiB given to the printing process from OS
            -5 MiB allocation reported by mallinfo(arena+hblkhd)
         51678 MiB available memory on the node where the printing process lives
     GPU memory used/free/total (MiB): 3330 / 12950 / 16280
------------------
     ethr =  2.89E-07,  avg # of iterations =  4.2

     negative rho (up, down):  0.000E+00 3.043E-04

     total cpu time spent up to now is      745.9 secs

     total energy              =    -961.18940011 Ry
     estimated scf accuracy    <       0.00033643 Ry

     total magnetization       =     5.24 Bohr mag/cell
     absolute magnetization    =     5.27 Bohr mag/cell
[tb_dev] Currently allocated     1.30E+01 Mbytes, locked:    0 /  15
[tb_pin] Currently allocated     0.00E+00 Mbytes, locked:    0 /   0

     iteration # 27     ecut=    90.00 Ry     beta= 0.20
     Davidson diagonalization with overlap

---- Real-time Memory Report at c_bands before calling an iterative solver
          5019 MiB given to the printing process from OS
            -3 MiB allocation reported by mallinfo(arena+hblkhd)
         51678 MiB available memory on the node where the printing process lives
     GPU memory used/free/total (MiB): 3330 / 12950 / 16280
------------------
     ethr =  2.89E-07,  avg # of iterations =  2.3

     negative rho (up, down):  0.000E+00 2.936E-04

     total cpu time spent up to now is      770.1 secs

     total energy              =    -961.19003921 Ry
     estimated scf accuracy    <       0.00021059 Ry

     total magnetization       =     5.50 Bohr mag/cell
     absolute magnetization    =     5.53 Bohr mag/cell
[tb_dev] Currently allocated     1.30E+01 Mbytes, locked:    0 /  15
[tb_pin] Currently allocated     0.00E+00 Mbytes, locked:    0 /   0

     iteration # 28     ecut=    90.00 Ry     beta= 0.20
     Davidson diagonalization with overlap

---- Real-time Memory Report at c_bands before calling an iterative solver
          5022 MiB given to the printing process from OS
            -1 MiB allocation reported by mallinfo(arena+hblkhd)
         51676 MiB available memory on the node where the printing process lives
     GPU memory used/free/total (MiB): 3330 / 12950 / 16280
------------------
     ethr =  2.77E-07,  avg # of iterations =  2.0

     negative rho (up, down):  0.000E+00 3.064E-04

     total cpu time spent up to now is      793.0 secs

     total energy              =    -961.18955805 Ry
     estimated scf accuracy    <       0.00028848 Ry

     total magnetization       =     5.27 Bohr mag/cell
     absolute magnetization    =     5.30 Bohr mag/cell
[tb_dev] Currently allocated     1.30E+01 Mbytes, locked:    0 /  15
[tb_pin] Currently allocated     0.00E+00 Mbytes, locked:    0 /   0

     iteration # 29     ecut=    90.00 Ry     beta= 0.20
     Davidson diagonalization with overlap

---- Real-time Memory Report at c_bands before calling an iterative solver
          5024 MiB given to the printing process from OS
             0 MiB allocation reported by mallinfo(arena+hblkhd)
         51674 MiB available memory on the node where the printing process lives
     GPU memory used/free/total (MiB): 3330 / 12950 / 16280
------------------
     ethr =  2.77E-07,  avg # of iterations =  2.0

     negative rho (up, down):  0.000E+00 3.486E-04

     total cpu time spent up to now is      816.6 secs

     total energy              =    -961.18158681 Ry
     estimated scf accuracy    <       0.00017096 Ry

     total magnetization       =     5.51 Bohr mag/cell
     absolute magnetization    =     5.54 Bohr mag/cell
[tb_dev] Currently allocated     1.30E+01 Mbytes, locked:    0 /  15
[tb_pin] Currently allocated     0.00E+00 Mbytes, locked:    0 /   0

     iteration # 30     ecut=    90.00 Ry     beta= 0.20
     Davidson diagonalization with overlap

---- Real-time Memory Report at c_bands before calling an iterative solver
          5025 MiB given to the printing process from OS
             2 MiB allocation reported by mallinfo(arena+hblkhd)
         51670 MiB available memory on the node where the printing process lives
     GPU memory used/free/total (MiB): 3330 / 12950 / 16280
------------------
     ethr =  2.25E-07,  avg # of iterations =  4.7

     negative rho (up, down):  0.000E+00 3.579E-04

     total cpu time spent up to now is      851.4 secs

     total energy              =    -961.18607927 Ry
     estimated scf accuracy    <       0.00450435 Ry

     total magnetization       =     5.96 Bohr mag/cell
     absolute magnetization    =     6.00 Bohr mag/cell
[tb_dev] Currently allocated     1.30E+01 Mbytes, locked:    0 /  15
[tb_pin] Currently allocated     0.00E+00 Mbytes, locked:    0 /   0

     iteration # 31     ecut=    90.00 Ry     beta= 0.20
     Davidson diagonalization with overlap

---- Real-time Memory Report at c_bands before calling an iterative solver
          5028 MiB given to the printing process from OS
             4 MiB allocation reported by mallinfo(arena+hblkhd)
         51642 MiB available memory on the node where the printing process lives
     GPU memory used/free/total (MiB): 3330 / 12950 / 16280
------------------
     ethr =  2.25E-07,  avg # of iterations =  2.0

     negative rho (up, down):  0.000E+00 3.606E-04

     total cpu time spent up to now is      874.8 secs

     total energy              =    -961.18580526 Ry
     estimated scf accuracy    <       0.01073981 Ry

     total magnetization       =     5.99 Bohr mag/cell
     absolute magnetization    =     6.03 Bohr mag/cell
[tb_dev] Currently allocated     1.30E+01 Mbytes, locked:    0 /  15
[tb_pin] Currently allocated     0.00E+00 Mbytes, locked:    0 /   0

     iteration # 32     ecut=    90.00 Ry     beta= 0.20
     Davidson diagonalization with overlap

---- Real-time Memory Report at c_bands before calling an iterative solver
          5030 MiB given to the printing process from OS
             6 MiB allocation reported by mallinfo(arena+hblkhd)
         51643 MiB available memory on the node where the printing process lives
     GPU memory used/free/total (MiB): 3330 / 12950 / 16280
------------------
     ethr =  2.25E-07,  avg # of iterations =  1.5

     negative rho (up, down):  0.000E+00 3.725E-04

     total cpu time spent up to now is      894.3 secs

     total energy              =    -961.18308152 Ry
     estimated scf accuracy    <       0.01346973 Ry

     total magnetization       =     5.99 Bohr mag/cell
     absolute magnetization    =     6.04 Bohr mag/cell
[tb_dev] Currently allocated     1.30E+01 Mbytes, locked:    0 /  15
[tb_pin] Currently allocated     0.00E+00 Mbytes, locked:    0 /   0

     iteration # 33     ecut=    90.00 Ry     beta= 0.20
     Davidson diagonalization with overlap

---- Real-time Memory Report at c_bands before calling an iterative solver
          5032 MiB given to the printing process from OS
             8 MiB allocation reported by mallinfo(arena+hblkhd)
         51652 MiB available memory on the node where the printing process lives
     GPU memory used/free/total (MiB): 3330 / 12950 / 16280
------------------
     ethr =  2.25E-07,  avg # of iterations =  2.6

     negative rho (up, down):  0.000E+00 3.806E-04

     total cpu time spent up to now is      919.7 secs

     total energy              =    -961.18142200 Ry
     estimated scf accuracy    <       0.03050153 Ry

     total magnetization       =     5.98 Bohr mag/cell
     absolute magnetization    =     6.03 Bohr mag/cell
[tb_dev] Currently allocated     1.30E+01 Mbytes, locked:    0 /  15
[tb_pin] Currently allocated     0.00E+00 Mbytes, locked:    0 /   0

     iteration # 34     ecut=    90.00 Ry     beta= 0.20
     Davidson diagonalization with overlap

---- Real-time Memory Report at c_bands before calling an iterative solver
          5033 MiB given to the printing process from OS
            10 MiB allocation reported by mallinfo(arena+hblkhd)
         51651 MiB available memory on the node where the printing process lives
     GPU memory used/free/total (MiB): 3330 / 12950 / 16280
------------------
     ethr =  2.25E-07,  avg # of iterations =  2.0

     negative rho (up, down):  0.000E+00 4.078E-04

     total cpu time spent up to now is      942.6 secs

     total energy              =    -961.17039726 Ry
     estimated scf accuracy    <       0.04823380 Ry

     total magnetization       =     5.90 Bohr mag/cell
     absolute magnetization    =     5.96 Bohr mag/cell
[tb_dev] Currently allocated     1.30E+01 Mbytes, locked:    0 /  15
[tb_pin] Currently allocated     0.00E+00 Mbytes, locked:    0 /   0

[...]
     GPU memory used/free/total (MiB): 3330 / 12950 / 16280
------------------
     ethr =  2.25E-07,  avg # of iterations =  2.5

     negative rho (up, down):  0.000E+00 3.253E-04

     total cpu time spent up to now is     1691.9 secs

     total energy              =    -961.18937651 Ry
     estimated scf accuracy    <       0.00021946 Ry

     total magnetization       =     5.57 Bohr mag/cell
     absolute magnetization    =     5.60 Bohr mag/cell
[tb_dev] Currently allocated     1.30E+01 Mbytes, locked:    0 /  15
[tb_pin] Currently allocated     0.00E+00 Mbytes, locked:    0 /   0

     iteration # 66     ecut=    90.00 Ry     beta= 0.20
     Davidson diagonalization with overlap

---- Real-time Memory Report at c_bands before calling an iterative solver
          5104 MiB given to the printing process from OS
            81 MiB allocation reported by mallinfo(arena+hblkhd)
         51592 MiB available memory on the node where the printing process lives
     GPU memory used/free/total (MiB): 3330 / 12950 / 16280
------------------
     ethr =  2.25E-07,  avg # of iterations =  2.0

     negative rho (up, down):  0.000E+00 3.269E-04

     total cpu time spent up to now is     1715.7 secs

     total energy              =    -961.18973247 Ry
     estimated scf accuracy    <       0.00039858 Ry

     total magnetization       =     5.72 Bohr mag/cell
     absolute magnetization    =     5.75 Bohr mag/cell
[tb_dev] Currently allocated     1.30E+01 Mbytes, locked:    0 /  15
[tb_pin] Currently allocated     0.00E+00 Mbytes, locked:    0 /   0

     iteration # 67     ecut=    90.00 Ry     beta= 0.20
     Davidson diagonalization with overlap

---- Real-time Memory Report at c_bands before calling an iterative solver
          5106 MiB given to the printing process from OS
            83 MiB allocation reported by mallinfo(arena+hblkhd)
         51588 MiB available memory on the node where the printing process lives
     GPU memory used/free/total (MiB): 3330 / 12950 / 16280
------------------
     ethr =  2.25E-07,  avg # of iterations =  1.0

     negative rho (up, down):  0.000E+00 3.263E-04

     total cpu time spent up to now is     1734.7 secs

     total energy              =    -961.18979090 Ry
     estimated scf accuracy    <       0.00046410 Ry

     total magnetization       =     5.74 Bohr mag/cell
     absolute magnetization    =     5.77 Bohr mag/cell
[tb_dev] Currently allocated     1.30E+01 Mbytes, locked:    0 /  15
[tb_pin] Currently allocated     0.00E+00 Mbytes, locked:    0 /   0

     iteration # 68     ecut=    90.00 Ry     beta= 0.20
     Davidson diagonalization with overlap

---- Real-time Memory Report at c_bands before calling an iterative solver
          5107 MiB given to the printing process from OS
            85 MiB allocation reported by mallinfo(arena+hblkhd)
         51586 MiB available memory on the node where the printing process lives
     GPU memory used/free/total (MiB): 3330 / 12950 / 16280
------------------
     ethr =  2.25E-07,  avg # of iterations =  1.0

     negative rho (up, down):  0.000E+00 3.123E-04

     total cpu time spent up to now is     1753.5 secs

     total energy              =    -961.18945716 Ry
     estimated scf accuracy    <       0.00045966 Ry

     total magnetization       =     5.73 Bohr mag/cell
     absolute magnetization    =     5.76 Bohr mag/cell
[tb_dev] Currently allocated     1.30E+01 Mbytes, locked:    0 /  15
[tb_pin] Currently allocated     0.00E+00 Mbytes, locked:    0 /   0

     iteration # 69     ecut=    90.00 Ry     beta= 0.20
     Davidson diagonalization with overlap

---- Real-time Memory Report at c_bands before calling an iterative solver
          5110 MiB given to the printing process from OS
            87 MiB allocation reported by mallinfo(arena+hblkhd)
         51583 MiB available memory on the node where the printing process lives
     GPU memory used/free/total (MiB): 3330 / 12950 / 16280
------------------
     ethr =  2.25E-07,  avg # of iterations =  2.5

     negative rho (up, down):  0.000E+00 2.977E-04

     total cpu time spent up to now is     1779.0 secs

     total energy              =    -961.18982531 Ry
     estimated scf accuracy    <       0.00033874 Ry

     total magnetization       =     5.49 Bohr mag/cell
     absolute magnetization    =     5.52 Bohr mag/cell
[tb_dev] Currently allocated     1.30E+01 Mbytes, locked:    0 /  15
[tb_pin] Currently allocated     0.00E+00 Mbytes, locked:    0 /   0

     iteration # 70     ecut=    90.00 Ry     beta= 0.20
     Davidson diagonalization with overlap

---- Real-time Memory Report at c_bands before calling an iterative solver
          5112 MiB given to the printing process from OS
            89 MiB allocation reported by mallinfo(arena+hblkhd)
         51584 MiB available memory on the node where the printing process lives
     GPU memory used/free/total (MiB): 3330 / 12950 / 16280
------------------
     ethr =  2.25E-07,  avg # of iterations =  2.5

     negative rho (up, down):  0.000E+00 3.429E-04

     total cpu time spent up to now is     1804.7 secs

     total energy              =    -961.17838474 Ry
     estimated scf accuracy    <       0.00067090 Ry

     total magnetization       =     5.20 Bohr mag/cell
     absolute magnetization    =     5.23 Bohr mag/cell
[tb_dev] Currently allocated     1.30E+01 Mbytes, locked:    0 /  15
[tb_pin] Currently allocated     0.00E+00 Mbytes, locked:    0 /   0

     iteration # 71     ecut=    90.00 Ry     beta= 0.20
     Davidson diagonalization with overlap

---- Real-time Memory Report at c_bands before calling an iterative solver
          5113 MiB given to the printing process from OS
            91 MiB allocation reported by mallinfo(arena+hblkhd)
         51580 MiB available memory on the node where the printing process lives
     GPU memory used/free/total (MiB): 3330 / 12950 / 16280
------------------
     ethr =  2.25E-07,  avg # of iterations =  4.0

     negative rho (up, down):  0.000E+00 3.393E-04

     total cpu time spent up to now is     1837.3 secs

     total energy              =    -961.18890864 Ry
     estimated scf accuracy    <       0.00230802 Ry

     total magnetization       =     5.91 Bohr mag/cell
     absolute magnetization    =     5.95 Bohr mag/cell
[tb_dev] Currently allocated     1.30E+01 Mbytes, locked:    0 /  15
[tb_pin] Currently allocated     0.00E+00 Mbytes, locked:    0 /   0

     iteration # 72     ecut=    90.00 Ry     beta= 0.20
     Davidson diagonalization with overlap

---- Real-time Memory Report at c_bands before calling an iterative solver
          5116 MiB given to the printing process from OS
            93 MiB allocation reported by mallinfo(arena+hblkhd)
         51579 MiB available memory on the node where the printing process lives
     GPU memory used/free/total (MiB): 3330 / 12950 / 16280
------------------
     ethr =  2.25E-07,  avg # of iterations =  1.5

     negative rho (up, down):  0.000E+00 3.224E-04

     total cpu time spent up to now is     1856.8 secs

     total energy              =    -961.18892232 Ry
     estimated scf accuracy    <       0.00156995 Ry

     total magnetization       =     5.88 Bohr mag/cell
     absolute magnetization    =     5.92 Bohr mag/cell
[tb_dev] Currently allocated     1.30E+01 Mbytes, locked:    0 /  15
[tb_pin] Currently allocated     0.00E+00 Mbytes, locked:    0 /   0

     iteration # 73     ecut=    90.00 Ry     beta= 0.20
     Davidson diagonalization with overlap

---- Real-time Memory Report at c_bands before calling an iterative solver
          5118 MiB given to the printing process from OS
            95 MiB allocation reported by mallinfo(arena+hblkhd)
         51578 MiB available memory on the node where the printing process lives
     GPU memory used/free/total (MiB): 3330 / 12950 / 16280
------------------
     ethr =  2.25E-07,  avg # of iterations =  2.5

     negative rho (up, down):  0.000E+00 3.270E-04

     total cpu time spent up to now is     1882.6 secs

     total energy              =    -961.18967361 Ry
     estimated scf accuracy    <       0.00035087 Ry

     total magnetization       =     5.67 Bohr mag/cell
     absolute magnetization    =     5.70 Bohr mag/cell
[tb_dev] Currently allocated     1.30E+01 Mbytes, locked:    0 /  15
[tb_pin] Currently allocated     0.00E+00 Mbytes, locked:    0 /   0

     iteration # 74     ecut=    90.00 Ry     beta= 0.20
     Davidson diagonalization with overlap

---- Real-time Memory Report at c_bands before calling an iterative solver
          5120 MiB given to the printing process from OS
            97 MiB allocation reported by mallinfo(arena+hblkhd)
         51574 MiB available memory on the node where the printing process lives
     GPU memory used/free/total (MiB): 3330 / 12950 / 16280
------------------
     ethr =  2.25E-07,  avg # of iterations =  1.5

     negative rho (up, down):  0.000E+00 3.265E-04

     total cpu time spent up to now is     1902.4 secs

     total energy              =    -961.18979362 Ry
     estimated scf accuracy    <       0.00048223 Ry

     total magnetization       =     5.74 Bohr mag/cell
     absolute magnetization    =     5.77 Bohr mag/cell
[tb_dev] Currently allocated     1.30E+01 Mbytes, locked:    0 /  15
[tb_pin] Currently allocated     0.00E+00 Mbytes, locked:    0 /   0

     iteration # 75     ecut=    90.00 Ry     beta= 0.20
     Davidson diagonalization with overlap

---- Real-time Memory Report at c_bands before calling an iterative solver
          5121 MiB given to the printing process from OS
            99 MiB allocation reported by mallinfo(arena+hblkhd)
         51571 MiB available memory on the node where the printing process lives
     GPU memory used/free/total (MiB): 3330 / 12950 / 16280
------------------
     ethr =  2.25E-07,  avg # of iterations =  1.0

     negative rho (up, down):  0.000E+00 3.175E-04

     total cpu time spent up to now is     1920.9 secs

     total energy              =    -961.18980206 Ry
     estimated scf accuracy    <       0.00048164 Ry

     total magnetization       =     5.73 Bohr mag/cell
     absolute magnetization    =     5.76 Bohr mag/cell
[tb_dev] Currently allocated     1.30E+01 Mbytes, locked:    0 /  15
[tb_pin] Currently allocated     0.00E+00 Mbytes, locked:    0 /   0

     iteration # 76     ecut=    90.00 Ry     beta= 0.20
     Davidson diagonalization with overlap

---- Real-time Memory Report at c_bands before calling an iterative solver
          5124 MiB given to the printing process from OS
           101 MiB allocation reported by mallinfo(arena+hblkhd)
         51568 MiB available memory on the node where the printing process lives
     GPU memory used/free/total (MiB): 3330 / 12950 / 16280
------------------
     ethr =  2.25E-07,  avg # of iterations =  2.0

     negative rho (up, down):  0.000E+00 3.181E-04

     total cpu time spent up to now is     1943.7 secs

     total energy              =    -961.19014901 Ry
     estimated scf accuracy    <       0.00034855 Ry

     total magnetization       =     5.58 Bohr mag/cell
     absolute magnetization    =     5.61 Bohr mag/cell
[tb_dev] Currently allocated     1.30E+01 Mbytes, locked:    0 /  15
[tb_pin] Currently allocated     0.00E+00 Mbytes, locked:    0 /   0

     iteration # 77     ecut=    90.00 Ry     beta= 0.20
     Davidson diagonalization with overlap

---- Real-time Memory Report at c_bands before calling an iterative solver
          5126 MiB given to the printing process from OS
           103 MiB allocation reported by mallinfo(arena+hblkhd)
         51569 MiB available memory on the node where the printing process lives
     GPU memory used/free/total (MiB): 3330 / 12950 / 16280
------------------
     ethr =  2.25E-07,  avg # of iterations =  1.0

     negative rho (up, down):  0.000E+00 3.275E-04

     total cpu time spent up to now is     1962.2 secs

     total energy              =    -961.18943103 Ry
     estimated scf accuracy    <       0.00040519 Ry

     total magnetization       =     5.58 Bohr mag/cell
     absolute magnetization    =     5.61 Bohr mag/cell
[tb_dev] Currently allocated     1.30E+01 Mbytes, locked:    0 /  15
[tb_pin] Currently allocated     0.00E+00 Mbytes, locked:    0 /   0

     iteration # 78     ecut=    90.00 Ry     beta= 0.20
     Davidson diagonalization with overlap

---- Real-time Memory Report at c_bands before calling an iterative solver
          5127 MiB given to the printing process from OS
           105 MiB allocation reported by mallinfo(arena+hblkhd)
         51569 MiB available memory on the node where the printing process lives
     GPU memory used/free/total (MiB): 3330 / 12950 / 16280
------------------
     ethr =  2.25E-07,  avg # of iterations =  2.0

     negative rho (up, down):  0.000E+00 3.616E-04

     total cpu time spent up to now is     1985.1 secs

     total energy              =    -961.18261657 Ry
     estimated scf accuracy    <       0.00056796 Ry

     total magnetization       =     5.72 Bohr mag/cell
     absolute magnetization    =     5.76 Bohr mag/cell
[tb_dev] Currently allocated     1.30E+01 Mbytes, locked:    0 /  15
[tb_pin] Currently allocated     0.00E+00 Mbytes, locked:    0 /   0

     iteration # 79     ecut=    90.00 Ry     beta= 0.20
     Davidson diagonalization with overlap

---- Real-time Memory Report at c_bands before calling an iterative solver
          5130 MiB given to the printing process from OS
           107 MiB allocation reported by mallinfo(arena+hblkhd)
         51567 MiB available memory on the node where the printing process lives
     GPU memory used/free/total (MiB): 3330 / 12950 / 16280
------------------
     ethr =  2.25E-07,  avg # of iterations =  3.9

     negative rho (up, down):  0.000E+00 3.078E-04

     total cpu time spent up to now is     2016.6 secs

     total energy              =    -961.18158838 Ry
     estimated scf accuracy    <       0.01253794 Ry

     total magnetization       =     5.98 Bohr mag/cell
     absolute magnetization    =     6.03 Bohr mag/cell
[tb_dev] Currently allocated     1.30E+01 Mbytes, locked:    0 /  15
[tb_pin] Currently allocated     0.00E+00 Mbytes, locked:    0 /   0

     iteration # 80     ecut=    90.00 Ry     beta= 0.20
     Davidson diagonalization with overlap

---- Real-time Memory Report at c_bands before calling an iterative solver
          5132 MiB given to the printing process from OS
           109 MiB allocation reported by mallinfo(arena+hblkhd)
         51562 MiB available memory on the node where the printing process lives
     GPU memory used/free/total (MiB): 3330 / 12950 / 16280
------------------
     ethr =  2.25E-07,  avg # of iterations =  4.5

     negative rho (up, down):  0.000E+00 3.344E-04

     total cpu time spent up to now is     2051.1 secs

     total energy              =    -961.18642214 Ry
     estimated scf accuracy    <       0.00056233 Ry

     total magnetization       =     5.38 Bohr mag/cell
     absolute magnetization    =     5.41 Bohr mag/cell

     End of self-consistent calculation

     convergence NOT achieved after  80 iterations: stopping

     Writing config to output data dir ./out/aiida.save/
 
     init_run     :     25.75s CPU      6.96s WALL (       1 calls)
     electrons    :   2448.38s CPU   2043.53s WALL (       1 calls)

     Called by init_run:
     wfcinit      :      1.42s CPU      1.42s WALL (       1 calls)
                                        1.42s GPU  (       1 calls)
     potinit      :      8.02s CPU      0.95s WALL (       1 calls)
     hinit0       :      9.36s CPU      3.39s WALL (       1 calls)

     Called by electrons:
     c_bands      :   1630.90s CPU   1703.92s WALL (      81 calls)
     sum_band     :    269.22s CPU    289.14s WALL (      81 calls)
     v_of_rho     :     81.35s CPU      7.43s WALL (      81 calls)
     v_h          :     15.96s CPU      1.44s WALL (      81 calls)
     v_xc         :     65.38s CPU      6.00s WALL (      81 calls)
     newd         :     93.42s CPU      8.86s WALL (      81 calls)
                                        8.86s GPU  (      81 calls)
     PAW_pot      :    303.37s CPU     27.54s WALL (      81 calls)
     mix_rho      :     46.58s CPU      4.48s WALL (      81 calls)

     Called by c_bands:
     init_us_2    :     75.25s CPU     82.56s WALL (   73224 calls)
     init_us_2:gp :     73.97s CPU     81.30s WALL (   73224 calls)
     cegterg      :   1429.16s CPU   1488.22s WALL (   36612 calls)

     Called by sum_band:
     sum_band:wei :      1.44s CPU      1.45s WALL (      81 calls)
                                        1.44s GPU  (      81 calls)
     sum_band:loo :    253.97s CPU    273.71s WALL (      81 calls)
                                      273.71s GPU  (      81 calls)
     sum_band:buf :     70.32s CPU     73.06s WALL (   36612 calls)
                                       72.84s GPU  (   36612 calls)
     sum_band:ini :     35.26s CPU     40.15s WALL (   36612 calls)
                                       39.94s GPU  (   36612 calls)
     sum_band:cal :      1.12s CPU     13.58s WALL (   36612 calls)
                                        7.24s GPU  (   36612 calls)
     sum_band:bec :      8.63s CPU      9.37s WALL (   36612 calls)
                                        9.12s GPU  (   36612 calls)
     addusdens    :      9.60s CPU      9.77s WALL (      81 calls)
                                        9.77s GPU  (      81 calls)
     addusd:skk   :      0.04s CPU      0.04s WALL (     243 calls)
                                        0.04s GPU  (     243 calls)

     Called by *egterg:
     cdiaghg      :    415.86s CPU    471.19s WALL (  129129 calls)
                                      470.32s GPU  (  129129 calls)
     cegterg:over :     30.71s CPU     31.24s WALL (   93421 calls)
     cegterg:upda :     49.71s CPU     52.35s WALL (   93421 calls)
     cegterg:last :     25.43s CPU     25.65s WALL (   75303 calls)
     h_psi        :    818.57s CPU    820.19s WALL (  130033 calls)
                                      818.53s GPU  (  130033 calls)
     s_psi        :     16.40s CPU     34.46s WALL (  130033 calls)
                                       31.17s GPU  (  130033 calls)
     g_psi        :      0.65s CPU      4.51s WALL (   93421 calls)
                                        3.89s GPU  (   93421 calls)

     Called by h_psi:
     h_psi:calbec :      4.18s CPU     25.48s WALL (  130033 calls)
                                       24.62s GPU  (  130033 calls)
     vloc_psi     :    739.03s CPU    742.99s WALL (  130033 calls)
                                      742.17s GPU  (  130033 calls)
     add_vuspsi   :     25.16s CPU     40.22s WALL (  130033 calls)
                                       39.37s GPU  (  130033 calls)

     General routines
     calbec       :      3.71s CPU      3.77s WALL (  166645 calls)
     fft          :      3.62s CPU      0.92s WALL (    2025 calls)
                                        0.70s GPU  (    1863 calls)
     ffts         :      0.16s CPU      0.05s WALL (     324 calls)
                                        0.01s GPU  (     162 calls)
     fftw         :     14.77s CPU    598.89s WALL (  756570 calls)
                                      594.11s GPU  (  756570 calls)
     interpolate  :      9.23s CPU      0.82s WALL (     162 calls)
     davcio       :      0.40s CPU      3.82s WALL (     922 calls)
 
     Parallel routines

     PAW routines
     PAW_pot      :    303.37s CPU     27.54s WALL (      81 calls)
     PAW_symme    :      0.10s CPU      0.02s WALL (     161 calls)
 
     PWSCF        :  41m17.31s CPU  34m14.19s WALL

 
   This run was terminated on:  20:55:33  23Oct2023            

=------------------------------------------------------------------------------=
   JOB DONE.
=------------------------------------------------------------------------------=
