
     Program PWSCF v.7.2 starts on 23Oct2023 at 21:58:13 

     This program is part of the open-source Quantum ESPRESSO suite
     for quantum simulation of materials; please cite
         "P. Giannozzi et al., J. Phys.:Condens. Matter 21 395502 (2009);
         "P. Giannozzi et al., J. Phys.:Condens. Matter 29 465901 (2017);
         "P. Giannozzi et al., J. Chem. Phys. 152 154105 (2020);
          URL http://www.quantum-espresso.org", 
     in publications or presentations arising from this work. More details at
     http://www.quantum-espresso.org/quote

     Parallel version (MPI & OpenMP), running on      12 processor cores
     Number of MPI processes:                 1
     Threads/MPI process:                    12

     MPI processes distributed on     1 nodes
     60175 MiB available memory on the printing compute node when the environment starts
 
     Reading input from aiida.in

     Current dimensions of program PWSCF are:
     Max number of different atomic species (ntypx) = 10
     Max number of k-points (npk) =  40000
     Max angular momentum in pseudopotentials (lmaxx) =  4
     Message from routine setup:
     using ibrav=0 with symmetry is DISCOURAGED, use correct ibrav instead
 
     Subspace diagonalization in iterative solution of the eigenvalue problem:
     a serial algorithm will be used

 
     G-vector sticks info
     --------------------
     sticks:   dense  smooth     PW     G-vecs:    dense   smooth      PW
     Sum        1649     553    177                67277    12939    2291
 
     Using Slab Decomposition
 


     bravais-lattice index     =            0
     lattice parameter (alat)  =       5.1514  a.u.
     unit-cell volume          =     182.6869 (a.u.)^3
     number of atoms/cell      =            2
     number of atomic types    =            2
     number of electrons       =        30.00
     number of Kohn-Sham states=           19
     kinetic-energy cutoff     =      65.0000  Ry
     charge density cutoff     =     780.0000  Ry
     scf convergence threshold =      4.0E-10
     mixing beta               =       0.2000
     number of iterations used =            8  plain     mixing
     Exchange-correlation= SLA  PW   PSX  PSC
                           (   1   4  10   8   0   0   0)

     GPU acceleration is ACTIVE.


     GPU used by master process:

        Device Number: 0
        Device name: Tesla P100-PCIE-16GB
        Compute capability : 60
        Ratio of single to double precision performance  : 2
        Memory Clock Rate (KHz): 715000
        Memory Bus Width (bits): 4096
        Peak Memory Bandwidth (GB/s): 732.16

     celldm(1)=   5.151393  celldm(2)=   0.000000  celldm(3)=   0.000000
     celldm(4)=   0.000000  celldm(5)=   0.000000  celldm(6)=   0.000000

     crystal axes: (cart. coord. in units of alat)
               a(1) = (   1.000000   0.000000   0.000000 )  
               a(2) = (   0.000000   1.000000   0.000000 )  
               a(3) = (   0.000000   0.000000   1.336390 )  

     reciprocal axes: (cart. coord. in units 2 pi/alat)
               b(1) = (  1.000000  0.000000  0.000000 )  
               b(2) = (  0.000000  1.000000  0.000000 )  
               b(3) = (  0.000000  0.000000  0.748284 )  


     PseudoPot. # 1 for Ir read from file:
     ./pseudo/ir_pbesol_v1.2.uspp.F.UPF
     MD5 check sum: 965d8bb5733ec2587acb56a50491f36d
     Pseudo is Ultrasoft + core correction, Zval = 15.0
     Generated by new atomic code, or converted to UPF format
     Using radial grid of  983 points,  7 beta functions with: 
                l(1) =   0
                l(2) =   0
                l(3) =   1
                l(4) =   1
                l(5) =   1
                l(6) =   2
                l(7) =   2
     Q(r) pseudized with  8 coefficients,  rinner =    1.400   1.400   1.400
                                                       1.400   1.400

     PseudoPot. # 2 for Mn read from file:
     ./pseudo/mn_pbesol_v1.5.uspp.F.UPF
     MD5 check sum: 0716d5f563e6e95a34f9080f4c78c109
     Pseudo is Ultrasoft + core correction, Zval = 15.0
     Generated by new atomic code, or converted to UPF format
     Using radial grid of  859 points,  6 beta functions with: 
                l(1) =   0
                l(2) =   0
                l(3) =   1
                l(4) =   1
                l(5) =   2
                l(6) =   2
     Q(r) pseudized with  8 coefficients,  rinner =    0.950   0.950   0.950
                                                       0.950   0.950

     atomic species   valence    mass     pseudopotential
        Ir            15.00   192.21700     Ir( 1.00)
        Mn            15.00    54.93805     Mn( 1.00)

     Starting magnetic structure 
     atomic species   magnetization
        Ir           0.333
        Mn           0.333

     16 Sym. Ops., with inversion, found


                                    s                        frac. trans.

      isym =  1     identity                                     

 cryst.   s( 1) = (     1          0          0      )
                  (     0          1          0      )
                  (     0          0          1      )

 cart.    s( 1) = (  1.0000000  0.0000000  0.0000000 )
                  (  0.0000000  1.0000000  0.0000000 )
                  (  0.0000000  0.0000000  1.0000000 )


      isym =  2     180 deg rotation - cart. axis [0,0,1]        

 cryst.   s( 2) = (    -1          0          0      )
                  (     0         -1          0      )
                  (     0          0          1      )

 cart.    s( 2) = ( -1.0000000  0.0000000  0.0000000 )
                  (  0.0000000 -1.0000000  0.0000000 )
                  (  0.0000000  0.0000000  1.0000000 )


      isym =  3     180 deg rotation - cart. axis [0,1,0]        

 cryst.   s( 3) = (    -1          0          0      )
                  (     0          1          0      )
                  (     0          0         -1      )

 cart.    s( 3) = ( -1.0000000  0.0000000  0.0000000 )
                  (  0.0000000  1.0000000  0.0000000 )
                  (  0.0000000  0.0000000 -1.0000000 )


      isym =  4     180 deg rotation - cart. axis [1,0,0]        

 cryst.   s( 4) = (     1          0          0      )
                  (     0         -1          0      )
                  (     0          0         -1      )

 cart.    s( 4) = (  1.0000000  0.0000000  0.0000000 )
                  (  0.0000000 -1.0000000  0.0000000 )
                  (  0.0000000  0.0000000 -1.0000000 )


      isym =  5     180 deg rotation - cart. axis [1,1,0]        

 cryst.   s( 5) = (     0          1          0      )
                  (     1          0          0      )
                  (     0          0         -1      )

 cart.    s( 5) = (  0.0000000  1.0000000  0.0000000 )
                  (  1.0000000  0.0000000  0.0000000 )
                  (  0.0000000  0.0000000 -1.0000000 )


      isym =  6     180 deg rotation - cart. axis [1,-1,0]       

 cryst.   s( 6) = (     0         -1          0      )
                  (    -1          0          0      )
                  (     0          0         -1      )

 cart.    s( 6) = (  0.0000000 -1.0000000  0.0000000 )
                  ( -1.0000000  0.0000000  0.0000000 )
                  (  0.0000000  0.0000000 -1.0000000 )


      isym =  7      90 deg rotation - cart. axis [0,0,-1]       

 cryst.   s( 7) = (     0         -1          0      )
                  (     1          0          0      )
                  (     0          0          1      )

 cart.    s( 7) = (  0.0000000  1.0000000  0.0000000 )
                  ( -1.0000000  0.0000000  0.0000000 )
                  (  0.0000000  0.0000000  1.0000000 )


      isym =  8      90 deg rotation - cart. axis [0,0,1]        

 cryst.   s( 8) = (     0          1          0      )
                  (    -1          0          0      )
                  (     0          0          1      )

 cart.    s( 8) = (  0.0000000 -1.0000000  0.0000000 )
                  (  1.0000000  0.0000000  0.0000000 )
                  (  0.0000000  0.0000000  1.0000000 )


      isym =  9     inversion                                    

 cryst.   s( 9) = (    -1          0          0      )
                  (     0         -1          0      )
                  (     0          0         -1      )

 cart.    s( 9) = ( -1.0000000  0.0000000  0.0000000 )
                  (  0.0000000 -1.0000000  0.0000000 )
                  (  0.0000000  0.0000000 -1.0000000 )


      isym = 10     inv. 180 deg rotation - cart. axis [0,0,1]   

 cryst.   s(10) = (     1          0          0      )
                  (     0          1          0      )
                  (     0          0         -1      )

 cart.    s(10) = (  1.0000000  0.0000000  0.0000000 )
                  (  0.0000000  1.0000000  0.0000000 )
                  (  0.0000000  0.0000000 -1.0000000 )


      isym = 11     inv. 180 deg rotation - cart. axis [0,1,0]   

 cryst.   s(11) = (     1          0          0      )
                  (     0         -1          0      )
                  (     0          0          1      )

 cart.    s(11) = (  1.0000000  0.0000000  0.0000000 )
                  (  0.0000000 -1.0000000  0.0000000 )
                  (  0.0000000  0.0000000  1.0000000 )


      isym = 12     inv. 180 deg rotation - cart. axis [1,0,0]   

 cryst.   s(12) = (    -1          0          0      )
                  (     0          1          0      )
                  (     0          0          1      )

 cart.    s(12) = ( -1.0000000  0.0000000  0.0000000 )
                  (  0.0000000  1.0000000  0.0000000 )
                  (  0.0000000  0.0000000  1.0000000 )


      isym = 13     inv. 180 deg rotation - cart. axis [1,1,0]   

 cryst.   s(13) = (     0         -1          0      )
                  (    -1          0          0      )
                  (     0          0          1      )

 cart.    s(13) = (  0.0000000 -1.0000000  0.0000000 )
                  ( -1.0000000  0.0000000  0.0000000 )
                  (  0.0000000  0.0000000  1.0000000 )


      isym = 14     inv. 180 deg rotation - cart. axis [1,-1,0]  

 cryst.   s(14) = (     0          1          0      )
                  (     1          0          0      )
                  (     0          0          1      )

 cart.    s(14) = (  0.0000000  1.0000000  0.0000000 )
                  (  1.0000000  0.0000000  0.0000000 )
                  (  0.0000000  0.0000000  1.0000000 )


      isym = 15     inv.  90 deg rotation - cart. axis [0,0,-1]  

 cryst.   s(15) = (     0          1          0      )
                  (    -1          0          0      )
                  (     0          0         -1      )

 cart.    s(15) = (  0.0000000 -1.0000000  0.0000000 )
                  (  1.0000000  0.0000000  0.0000000 )
                  (  0.0000000  0.0000000 -1.0000000 )


      isym = 16     inv.  90 deg rotation - cart. axis [0,0,1]   

 cryst.   s(16) = (     0         -1          0      )
                  (     1          0          0      )
                  (     0          0         -1      )

 cart.    s(16) = (  0.0000000  1.0000000  0.0000000 )
                  ( -1.0000000  0.0000000  0.0000000 )
                  (  0.0000000  0.0000000 -1.0000000 )


   Cartesian axes

     site n.     atom                  positions (alat units)
         1           Mn  tau(   1) = (   0.5000000   0.5000000   0.6681952  )
         2           Ir  tau(   2) = (   0.0000000   0.0000000   0.0000000  )

   Crystallographic axes

     site n.     atom                  positions (cryst. coord.)
         1           Mn  tau(   1) = (  0.5000000  0.5000000  0.5000000  )
         2           Ir  tau(   2) = (  0.0000000  0.0000000  0.0000000  )

     number of k points=   315  Marzari-Vanderbilt smearing, width (Ry)=  0.0100
                       cart. coord. in units 2pi/alat
        k(    1) = (   0.0000000   0.0000000   0.0000000), wk =   0.0003255
        k(    2) = (   0.0000000   0.0000000   0.0623570), wk =   0.0006510
        k(    3) = (   0.0000000   0.0000000   0.1247141), wk =   0.0006510
        k(    4) = (   0.0000000   0.0000000   0.1870711), wk =   0.0006510
        k(    5) = (   0.0000000   0.0000000   0.2494281), wk =   0.0006510
        k(    6) = (   0.0000000   0.0000000   0.3117852), wk =   0.0006510
        k(    7) = (   0.0000000   0.0000000  -0.3741422), wk =   0.0003255
        k(    8) = (   0.0000000   0.0625000   0.0000000), wk =   0.0013021
        k(    9) = (   0.0000000   0.0625000   0.0623570), wk =   0.0026042
        k(   10) = (   0.0000000   0.0625000   0.1247141), wk =   0.0026042
        k(   11) = (   0.0000000   0.0625000   0.1870711), wk =   0.0026042
        k(   12) = (   0.0000000   0.0625000   0.2494281), wk =   0.0026042
        k(   13) = (   0.0000000   0.0625000   0.3117852), wk =   0.0026042
        k(   14) = (   0.0000000   0.0625000  -0.3741422), wk =   0.0013021
        k(   15) = (   0.0000000   0.1250000   0.0000000), wk =   0.0013021
        k(   16) = (   0.0000000   0.1250000   0.0623570), wk =   0.0026042
        k(   17) = (   0.0000000   0.1250000   0.1247141), wk =   0.0026042
        k(   18) = (   0.0000000   0.1250000   0.1870711), wk =   0.0026042
        k(   19) = (   0.0000000   0.1250000   0.2494281), wk =   0.0026042
        k(   20) = (   0.0000000   0.1250000   0.3117852), wk =   0.0026042
        k(   21) = (   0.0000000   0.1250000  -0.3741422), wk =   0.0013021
        k(   22) = (   0.0000000   0.1875000   0.0000000), wk =   0.0013021
        k(   23) = (   0.0000000   0.1875000   0.0623570), wk =   0.0026042
        k(   24) = (   0.0000000   0.1875000   0.1247141), wk =   0.0026042
        k(   25) = (   0.0000000   0.1875000   0.1870711), wk =   0.0026042
        k(   26) = (   0.0000000   0.1875000   0.2494281), wk =   0.0026042
        k(   27) = (   0.0000000   0.1875000   0.3117852), wk =   0.0026042
        k(   28) = (   0.0000000   0.1875000  -0.3741422), wk =   0.0013021
        k(   29) = (   0.0000000   0.2500000   0.0000000), wk =   0.0013021
        k(   30) = (   0.0000000   0.2500000   0.0623570), wk =   0.0026042
        k(   31) = (   0.0000000   0.2500000   0.1247141), wk =   0.0026042
        k(   32) = (   0.0000000   0.2500000   0.1870711), wk =   0.0026042
        k(   33) = (   0.0000000   0.2500000   0.2494281), wk =   0.0026042
        k(   34) = (   0.0000000   0.2500000   0.3117852), wk =   0.0026042
        k(   35) = (   0.0000000   0.2500000  -0.3741422), wk =   0.0013021
        k(   36) = (   0.0000000   0.3125000   0.0000000), wk =   0.0013021
        k(   37) = (   0.0000000   0.3125000   0.0623570), wk =   0.0026042
        k(   38) = (   0.0000000   0.3125000   0.1247141), wk =   0.0026042
        k(   39) = (   0.0000000   0.3125000   0.1870711), wk =   0.0026042
        k(   40) = (   0.0000000   0.3125000   0.2494281), wk =   0.0026042
        k(   41) = (   0.0000000   0.3125000   0.3117852), wk =   0.0026042
        k(   42) = (   0.0000000   0.3125000  -0.3741422), wk =   0.0013021
        k(   43) = (   0.0000000   0.3750000   0.0000000), wk =   0.0013021
        k(   44) = (   0.0000000   0.3750000   0.0623570), wk =   0.0026042
        k(   45) = (   0.0000000   0.3750000   0.1247141), wk =   0.0026042
        k(   46) = (   0.0000000   0.3750000   0.1870711), wk =   0.0026042
        k(   47) = (   0.0000000   0.3750000   0.2494281), wk =   0.0026042
        k(   48) = (   0.0000000   0.3750000   0.3117852), wk =   0.0026042
        k(   49) = (   0.0000000   0.3750000  -0.3741422), wk =   0.0013021
        k(   50) = (   0.0000000   0.4375000   0.0000000), wk =   0.0013021
        k(   51) = (   0.0000000   0.4375000   0.0623570), wk =   0.0026042
        k(   52) = (   0.0000000   0.4375000   0.1247141), wk =   0.0026042
        k(   53) = (   0.0000000   0.4375000   0.1870711), wk =   0.0026042
        k(   54) = (   0.0000000   0.4375000   0.2494281), wk =   0.0026042
        k(   55) = (   0.0000000   0.4375000   0.3117852), wk =   0.0026042
        k(   56) = (   0.0000000   0.4375000  -0.3741422), wk =   0.0013021
        k(   57) = (   0.0000000  -0.5000000   0.0000000), wk =   0.0006510
        k(   58) = (   0.0000000  -0.5000000   0.0623570), wk =   0.0013021
        k(   59) = (   0.0000000  -0.5000000   0.1247141), wk =   0.0013021
        k(   60) = (   0.0000000  -0.5000000   0.1870711), wk =   0.0013021
        k(   61) = (   0.0000000  -0.5000000   0.2494281), wk =   0.0013021
        k(   62) = (   0.0000000  -0.5000000   0.3117852), wk =   0.0013021
        k(   63) = (   0.0000000  -0.5000000  -0.3741422), wk =   0.0006510
        k(   64) = (   0.0625000   0.0625000   0.0000000), wk =   0.0013021
        k(   65) = (   0.0625000   0.0625000   0.0623570), wk =   0.0026042
        k(   66) = (   0.0625000   0.0625000   0.1247141), wk =   0.0026042
        k(   67) = (   0.0625000   0.0625000   0.1870711), wk =   0.0026042
        k(   68) = (   0.0625000   0.0625000   0.2494281), wk =   0.0026042
        k(   69) = (   0.0625000   0.0625000   0.3117852), wk =   0.0026042
        k(   70) = (   0.0625000   0.0625000  -0.3741422), wk =   0.0013021
        k(   71) = (   0.0625000   0.1250000   0.0000000), wk =   0.0026042
        k(   72) = (   0.0625000   0.1250000   0.0623570), wk =   0.0052083
        k(   73) = (   0.0625000   0.1250000   0.1247141), wk =   0.0052083
        k(   74) = (   0.0625000   0.1250000   0.1870711), wk =   0.0052083
        k(   75) = (   0.0625000   0.1250000   0.2494281), wk =   0.0052083
        k(   76) = (   0.0625000   0.1250000   0.3117852), wk =   0.0052083
        k(   77) = (   0.0625000   0.1250000  -0.3741422), wk =   0.0026042
        k(   78) = (   0.0625000   0.1875000   0.0000000), wk =   0.0026042
        k(   79) = (   0.0625000   0.1875000   0.0623570), wk =   0.0052083
        k(   80) = (   0.0625000   0.1875000   0.1247141), wk =   0.0052083
        k(   81) = (   0.0625000   0.1875000   0.1870711), wk =   0.0052083
        k(   82) = (   0.0625000   0.1875000   0.2494281), wk =   0.0052083
        k(   83) = (   0.0625000   0.1875000   0.3117852), wk =   0.0052083
        k(   84) = (   0.0625000   0.1875000  -0.3741422), wk =   0.0026042
        k(   85) = (   0.0625000   0.2500000   0.0000000), wk =   0.0026042
        k(   86) = (   0.0625000   0.2500000   0.0623570), wk =   0.0052083
        k(   87) = (   0.0625000   0.2500000   0.1247141), wk =   0.0052083
        k(   88) = (   0.0625000   0.2500000   0.1870711), wk =   0.0052083
        k(   89) = (   0.0625000   0.2500000   0.2494281), wk =   0.0052083
        k(   90) = (   0.0625000   0.2500000   0.3117852), wk =   0.0052083
        k(   91) = (   0.0625000   0.2500000  -0.3741422), wk =   0.0026042
        k(   92) = (   0.0625000   0.3125000   0.0000000), wk =   0.0026042
        k(   93) = (   0.0625000   0.3125000   0.0623570), wk =   0.0052083
        k(   94) = (   0.0625000   0.3125000   0.1247141), wk =   0.0052083
        k(   95) = (   0.0625000   0.3125000   0.1870711), wk =   0.0052083
        k(   96) = (   0.0625000   0.3125000   0.2494281), wk =   0.0052083
        k(   97) = (   0.0625000   0.3125000   0.3117852), wk =   0.0052083
        k(   98) = (   0.0625000   0.3125000  -0.3741422), wk =   0.0026042
        k(   99) = (   0.0625000   0.3750000   0.0000000), wk =   0.0026042
        k(  100) = (   0.0625000   0.3750000   0.0623570), wk =   0.0052083
        k(  101) = (   0.0625000   0.3750000   0.1247141), wk =   0.0052083
        k(  102) = (   0.0625000   0.3750000   0.1870711), wk =   0.0052083
        k(  103) = (   0.0625000   0.3750000   0.2494281), wk =   0.0052083
        k(  104) = (   0.0625000   0.3750000   0.3117852), wk =   0.0052083
        k(  105) = (   0.0625000   0.3750000  -0.3741422), wk =   0.0026042
        k(  106) = (   0.0625000   0.4375000   0.0000000), wk =   0.0026042
        k(  107) = (   0.0625000   0.4375000   0.0623570), wk =   0.0052083
        k(  108) = (   0.0625000   0.4375000   0.1247141), wk =   0.0052083
        k(  109) = (   0.0625000   0.4375000   0.1870711), wk =   0.0052083
        k(  110) = (   0.0625000   0.4375000   0.2494281), wk =   0.0052083
        k(  111) = (   0.0625000   0.4375000   0.3117852), wk =   0.0052083
        k(  112) = (   0.0625000   0.4375000  -0.3741422), wk =   0.0026042
        k(  113) = (   0.0625000  -0.5000000   0.0000000), wk =   0.0013021
        k(  114) = (   0.0625000  -0.5000000   0.0623570), wk =   0.0026042
        k(  115) = (   0.0625000  -0.5000000   0.1247141), wk =   0.0026042
        k(  116) = (   0.0625000  -0.5000000   0.1870711), wk =   0.0026042
        k(  117) = (   0.0625000  -0.5000000   0.2494281), wk =   0.0026042
        k(  118) = (   0.0625000  -0.5000000   0.3117852), wk =   0.0026042
        k(  119) = (   0.0625000  -0.5000000  -0.3741422), wk =   0.0013021
        k(  120) = (   0.1250000   0.1250000   0.0000000), wk =   0.0013021
        k(  121) = (   0.1250000   0.1250000   0.0623570), wk =   0.0026042
        k(  122) = (   0.1250000   0.1250000   0.1247141), wk =   0.0026042
        k(  123) = (   0.1250000   0.1250000   0.1870711), wk =   0.0026042
        k(  124) = (   0.1250000   0.1250000   0.2494281), wk =   0.0026042
        k(  125) = (   0.1250000   0.1250000   0.3117852), wk =   0.0026042
        k(  126) = (   0.1250000   0.1250000  -0.3741422), wk =   0.0013021
        k(  127) = (   0.1250000   0.1875000   0.0000000), wk =   0.0026042
        k(  128) = (   0.1250000   0.1875000   0.0623570), wk =   0.0052083
        k(  129) = (   0.1250000   0.1875000   0.1247141), wk =   0.0052083
        k(  130) = (   0.1250000   0.1875000   0.1870711), wk =   0.0052083
        k(  131) = (   0.1250000   0.1875000   0.2494281), wk =   0.0052083
        k(  132) = (   0.1250000   0.1875000   0.3117852), wk =   0.0052083
        k(  133) = (   0.1250000   0.1875000  -0.3741422), wk =   0.0026042
        k(  134) = (   0.1250000   0.2500000   0.0000000), wk =   0.0026042
        k(  135) = (   0.1250000   0.2500000   0.0623570), wk =   0.0052083
        k(  136) = (   0.1250000   0.2500000   0.1247141), wk =   0.0052083
        k(  137) = (   0.1250000   0.2500000   0.1870711), wk =   0.0052083
        k(  138) = (   0.1250000   0.2500000   0.2494281), wk =   0.0052083
        k(  139) = (   0.1250000   0.2500000   0.3117852), wk =   0.0052083
        k(  140) = (   0.1250000   0.2500000  -0.3741422), wk =   0.0026042
        k(  141) = (   0.1250000   0.3125000   0.0000000), wk =   0.0026042
        k(  142) = (   0.1250000   0.3125000   0.0623570), wk =   0.0052083
        k(  143) = (   0.1250000   0.3125000   0.1247141), wk =   0.0052083
        k(  144) = (   0.1250000   0.3125000   0.1870711), wk =   0.0052083
        k(  145) = (   0.1250000   0.3125000   0.2494281), wk =   0.0052083
        k(  146) = (   0.1250000   0.3125000   0.3117852), wk =   0.0052083
        k(  147) = (   0.1250000   0.3125000  -0.3741422), wk =   0.0026042
        k(  148) = (   0.1250000   0.3750000   0.0000000), wk =   0.0026042
        k(  149) = (   0.1250000   0.3750000   0.0623570), wk =   0.0052083
        k(  150) = (   0.1250000   0.3750000   0.1247141), wk =   0.0052083
        k(  151) = (   0.1250000   0.3750000   0.1870711), wk =   0.0052083
        k(  152) = (   0.1250000   0.3750000   0.2494281), wk =   0.0052083
        k(  153) = (   0.1250000   0.3750000   0.3117852), wk =   0.0052083
        k(  154) = (   0.1250000   0.3750000  -0.3741422), wk =   0.0026042
        k(  155) = (   0.1250000   0.4375000   0.0000000), wk =   0.0026042
        k(  156) = (   0.1250000   0.4375000   0.0623570), wk =   0.0052083
        k(  157) = (   0.1250000   0.4375000   0.1247141), wk =   0.0052083
        k(  158) = (   0.1250000   0.4375000   0.1870711), wk =   0.0052083
        k(  159) = (   0.1250000   0.4375000   0.2494281), wk =   0.0052083
        k(  160) = (   0.1250000   0.4375000   0.3117852), wk =   0.0052083
        k(  161) = (   0.1250000   0.4375000  -0.3741422), wk =   0.0026042
        k(  162) = (   0.1250000  -0.5000000   0.0000000), wk =   0.0013021
        k(  163) = (   0.1250000  -0.5000000   0.0623570), wk =   0.0026042
        k(  164) = (   0.1250000  -0.5000000   0.1247141), wk =   0.0026042
        k(  165) = (   0.1250000  -0.5000000   0.1870711), wk =   0.0026042
        k(  166) = (   0.1250000  -0.5000000   0.2494281), wk =   0.0026042
        k(  167) = (   0.1250000  -0.5000000   0.3117852), wk =   0.0026042
        k(  168) = (   0.1250000  -0.5000000  -0.3741422), wk =   0.0013021
        k(  169) = (   0.1875000   0.1875000   0.0000000), wk =   0.0013021
        k(  170) = (   0.1875000   0.1875000   0.0623570), wk =   0.0026042
        k(  171) = (   0.1875000   0.1875000   0.1247141), wk =   0.0026042
        k(  172) = (   0.1875000   0.1875000   0.1870711), wk =   0.0026042
        k(  173) = (   0.1875000   0.1875000   0.2494281), wk =   0.0026042
        k(  174) = (   0.1875000   0.1875000   0.3117852), wk =   0.0026042
        k(  175) = (   0.1875000   0.1875000  -0.3741422), wk =   0.0013021
        k(  176) = (   0.1875000   0.2500000   0.0000000), wk =   0.0026042
        k(  177) = (   0.1875000   0.2500000   0.0623570), wk =   0.0052083
        k(  178) = (   0.1875000   0.2500000   0.1247141), wk =   0.0052083
        k(  179) = (   0.1875000   0.2500000   0.1870711), wk =   0.0052083
        k(  180) = (   0.1875000   0.2500000   0.2494281), wk =   0.0052083
        k(  181) = (   0.1875000   0.2500000   0.3117852), wk =   0.0052083
        k(  182) = (   0.1875000   0.2500000  -0.3741422), wk =   0.0026042
        k(  183) = (   0.1875000   0.3125000   0.0000000), wk =   0.0026042
        k(  184) = (   0.1875000   0.3125000   0.0623570), wk =   0.0052083
        k(  185) = (   0.1875000   0.3125000   0.1247141), wk =   0.0052083
        k(  186) = (   0.1875000   0.3125000   0.1870711), wk =   0.0052083
        k(  187) = (   0.1875000   0.3125000   0.2494281), wk =   0.0052083
        k(  188) = (   0.1875000   0.3125000   0.3117852), wk =   0.0052083
        k(  189) = (   0.1875000   0.3125000  -0.3741422), wk =   0.0026042
        k(  190) = (   0.1875000   0.3750000   0.0000000), wk =   0.0026042
        k(  191) = (   0.1875000   0.3750000   0.0623570), wk =   0.0052083
        k(  192) = (   0.1875000   0.3750000   0.1247141), wk =   0.0052083
        k(  193) = (   0.1875000   0.3750000   0.1870711), wk =   0.0052083
        k(  194) = (   0.1875000   0.3750000   0.2494281), wk =   0.0052083
        k(  195) = (   0.1875000   0.3750000   0.3117852), wk =   0.0052083
        k(  196) = (   0.1875000   0.3750000  -0.3741422), wk =   0.0026042
        k(  197) = (   0.1875000   0.4375000   0.0000000), wk =   0.0026042
        k(  198) = (   0.1875000   0.4375000   0.0623570), wk =   0.0052083
        k(  199) = (   0.1875000   0.4375000   0.1247141), wk =   0.0052083
        k(  200) = (   0.1875000   0.4375000   0.1870711), wk =   0.0052083
        k(  201) = (   0.1875000   0.4375000   0.2494281), wk =   0.0052083
        k(  202) = (   0.1875000   0.4375000   0.3117852), wk =   0.0052083
        k(  203) = (   0.1875000   0.4375000  -0.3741422), wk =   0.0026042
        k(  204) = (   0.1875000  -0.5000000   0.0000000), wk =   0.0013021
        k(  205) = (   0.1875000  -0.5000000   0.0623570), wk =   0.0026042
        k(  206) = (   0.1875000  -0.5000000   0.1247141), wk =   0.0026042
        k(  207) = (   0.1875000  -0.5000000   0.1870711), wk =   0.0026042
        k(  208) = (   0.1875000  -0.5000000   0.2494281), wk =   0.0026042
        k(  209) = (   0.1875000  -0.5000000   0.3117852), wk =   0.0026042
        k(  210) = (   0.1875000  -0.5000000  -0.3741422), wk =   0.0013021
        k(  211) = (   0.2500000   0.2500000   0.0000000), wk =   0.0013021
        k(  212) = (   0.2500000   0.2500000   0.0623570), wk =   0.0026042
        k(  213) = (   0.2500000   0.2500000   0.1247141), wk =   0.0026042
        k(  214) = (   0.2500000   0.2500000   0.1870711), wk =   0.0026042
        k(  215) = (   0.2500000   0.2500000   0.2494281), wk =   0.0026042
        k(  216) = (   0.2500000   0.2500000   0.3117852), wk =   0.0026042
        k(  217) = (   0.2500000   0.2500000  -0.3741422), wk =   0.0013021
        k(  218) = (   0.2500000   0.3125000   0.0000000), wk =   0.0026042
        k(  219) = (   0.2500000   0.3125000   0.0623570), wk =   0.0052083
        k(  220) = (   0.2500000   0.3125000   0.1247141), wk =   0.0052083
        k(  221) = (   0.2500000   0.3125000   0.1870711), wk =   0.0052083
        k(  222) = (   0.2500000   0.3125000   0.2494281), wk =   0.0052083
        k(  223) = (   0.2500000   0.3125000   0.3117852), wk =   0.0052083
        k(  224) = (   0.2500000   0.3125000  -0.3741422), wk =   0.0026042
        k(  225) = (   0.2500000   0.3750000   0.0000000), wk =   0.0026042
        k(  226) = (   0.2500000   0.3750000   0.0623570), wk =   0.0052083
        k(  227) = (   0.2500000   0.3750000   0.1247141), wk =   0.0052083
        k(  228) = (   0.2500000   0.3750000   0.1870711), wk =   0.0052083
        k(  229) = (   0.2500000   0.3750000   0.2494281), wk =   0.0052083
        k(  230) = (   0.2500000   0.3750000   0.3117852), wk =   0.0052083
        k(  231) = (   0.2500000   0.3750000  -0.3741422), wk =   0.0026042
        k(  232) = (   0.2500000   0.4375000   0.0000000), wk =   0.0026042
        k(  233) = (   0.2500000   0.4375000   0.0623570), wk =   0.0052083
        k(  234) = (   0.2500000   0.4375000   0.1247141), wk =   0.0052083
        k(  235) = (   0.2500000   0.4375000   0.1870711), wk =   0.0052083
        k(  236) = (   0.2500000   0.4375000   0.2494281), wk =   0.0052083
        k(  237) = (   0.2500000   0.4375000   0.3117852), wk =   0.0052083
        k(  238) = (   0.2500000   0.4375000  -0.3741422), wk =   0.0026042
        k(  239) = (   0.2500000  -0.5000000   0.0000000), wk =   0.0013021
        k(  240) = (   0.2500000  -0.5000000   0.0623570), wk =   0.0026042
        k(  241) = (   0.2500000  -0.5000000   0.1247141), wk =   0.0026042
        k(  242) = (   0.2500000  -0.5000000   0.1870711), wk =   0.0026042
        k(  243) = (   0.2500000  -0.5000000   0.2494281), wk =   0.0026042
        k(  244) = (   0.2500000  -0.5000000   0.3117852), wk =   0.0026042
        k(  245) = (   0.2500000  -0.5000000  -0.3741422), wk =   0.0013021
        k(  246) = (   0.3125000   0.3125000   0.0000000), wk =   0.0013021
        k(  247) = (   0.3125000   0.3125000   0.0623570), wk =   0.0026042
        k(  248) = (   0.3125000   0.3125000   0.1247141), wk =   0.0026042
        k(  249) = (   0.3125000   0.3125000   0.1870711), wk =   0.0026042
        k(  250) = (   0.3125000   0.3125000   0.2494281), wk =   0.0026042
        k(  251) = (   0.3125000   0.3125000   0.3117852), wk =   0.0026042
        k(  252) = (   0.3125000   0.3125000  -0.3741422), wk =   0.0013021
        k(  253) = (   0.3125000   0.3750000   0.0000000), wk =   0.0026042
        k(  254) = (   0.3125000   0.3750000   0.0623570), wk =   0.0052083
        k(  255) = (   0.3125000   0.3750000   0.1247141), wk =   0.0052083
        k(  256) = (   0.3125000   0.3750000   0.1870711), wk =   0.0052083
        k(  257) = (   0.3125000   0.3750000   0.2494281), wk =   0.0052083
        k(  258) = (   0.3125000   0.3750000   0.3117852), wk =   0.0052083
        k(  259) = (   0.3125000   0.3750000  -0.3741422), wk =   0.0026042
        k(  260) = (   0.3125000   0.4375000   0.0000000), wk =   0.0026042
        k(  261) = (   0.3125000   0.4375000   0.0623570), wk =   0.0052083
        k(  262) = (   0.3125000   0.4375000   0.1247141), wk =   0.0052083
        k(  263) = (   0.3125000   0.4375000   0.1870711), wk =   0.0052083
        k(  264) = (   0.3125000   0.4375000   0.2494281), wk =   0.0052083
        k(  265) = (   0.3125000   0.4375000   0.3117852), wk =   0.0052083
        k(  266) = (   0.3125000   0.4375000  -0.3741422), wk =   0.0026042
        k(  267) = (   0.3125000  -0.5000000   0.0000000), wk =   0.0013021
        k(  268) = (   0.3125000  -0.5000000   0.0623570), wk =   0.0026042
        k(  269) = (   0.3125000  -0.5000000   0.1247141), wk =   0.0026042
        k(  270) = (   0.3125000  -0.5000000   0.1870711), wk =   0.0026042
        k(  271) = (   0.3125000  -0.5000000   0.2494281), wk =   0.0026042
        k(  272) = (   0.3125000  -0.5000000   0.3117852), wk =   0.0026042
        k(  273) = (   0.3125000  -0.5000000  -0.3741422), wk =   0.0013021
        k(  274) = (   0.3750000   0.3750000   0.0000000), wk =   0.0013021
        k(  275) = (   0.3750000   0.3750000   0.0623570), wk =   0.0026042
        k(  276) = (   0.3750000   0.3750000   0.1247141), wk =   0.0026042
        k(  277) = (   0.3750000   0.3750000   0.1870711), wk =   0.0026042
        k(  278) = (   0.3750000   0.3750000   0.2494281), wk =   0.0026042
        k(  279) = (   0.3750000   0.3750000   0.3117852), wk =   0.0026042
        k(  280) = (   0.3750000   0.3750000  -0.3741422), wk =   0.0013021
        k(  281) = (   0.3750000   0.4375000   0.0000000), wk =   0.0026042
        k(  282) = (   0.3750000   0.4375000   0.0623570), wk =   0.0052083
        k(  283) = (   0.3750000   0.4375000   0.1247141), wk =   0.0052083
        k(  284) = (   0.3750000   0.4375000   0.1870711), wk =   0.0052083
        k(  285) = (   0.3750000   0.4375000   0.2494281), wk =   0.0052083
        k(  286) = (   0.3750000   0.4375000   0.3117852), wk =   0.0052083
        k(  287) = (   0.3750000   0.4375000  -0.3741422), wk =   0.0026042
        k(  288) = (   0.3750000  -0.5000000   0.0000000), wk =   0.0013021
        k(  289) = (   0.3750000  -0.5000000   0.0623570), wk =   0.0026042
        k(  290) = (   0.3750000  -0.5000000   0.1247141), wk =   0.0026042
        k(  291) = (   0.3750000  -0.5000000   0.1870711), wk =   0.0026042
        k(  292) = (   0.3750000  -0.5000000   0.2494281), wk =   0.0026042
        k(  293) = (   0.3750000  -0.5000000   0.3117852), wk =   0.0026042
        k(  294) = (   0.3750000  -0.5000000  -0.3741422), wk =   0.0013021
        k(  295) = (   0.4375000   0.4375000   0.0000000), wk =   0.0013021
        k(  296) = (   0.4375000   0.4375000   0.0623570), wk =   0.0026042
        k(  297) = (   0.4375000   0.4375000   0.1247141), wk =   0.0026042
        k(  298) = (   0.4375000   0.4375000   0.1870711), wk =   0.0026042
        k(  299) = (   0.4375000   0.4375000   0.2494281), wk =   0.0026042
        k(  300) = (   0.4375000   0.4375000   0.3117852), wk =   0.0026042
        k(  301) = (   0.4375000   0.4375000  -0.3741422), wk =   0.0013021
        k(  302) = (   0.4375000  -0.5000000   0.0000000), wk =   0.0013021
        k(  303) = (   0.4375000  -0.5000000   0.0623570), wk =   0.0026042
        k(  304) = (   0.4375000  -0.5000000   0.1247141), wk =   0.0026042
        k(  305) = (   0.4375000  -0.5000000   0.1870711), wk =   0.0026042
        k(  306) = (   0.4375000  -0.5000000   0.2494281), wk =   0.0026042
        k(  307) = (   0.4375000  -0.5000000   0.3117852), wk =   0.0026042
        k(  308) = (   0.4375000  -0.5000000  -0.3741422), wk =   0.0013021
        k(  309) = (  -0.5000000  -0.5000000   0.0000000), wk =   0.0003255
        k(  310) = (  -0.5000000  -0.5000000   0.0623570), wk =   0.0006510
        k(  311) = (  -0.5000000  -0.5000000   0.1247141), wk =   0.0006510
        k(  312) = (  -0.5000000  -0.5000000   0.1870711), wk =   0.0006510
        k(  313) = (  -0.5000000  -0.5000000   0.2494281), wk =   0.0006510
        k(  314) = (  -0.5000000  -0.5000000   0.3117852), wk =   0.0006510
        k(  315) = (  -0.5000000  -0.5000000  -0.3741422), wk =   0.0003255

                       cryst. coord.
        k(    1) = (   0.0000000   0.0000000   0.0000000), wk =   0.0003255
        k(    2) = (   0.0000000   0.0000000   0.0833333), wk =   0.0006510
        k(    3) = (   0.0000000   0.0000000   0.1666667), wk =   0.0006510
        k(    4) = (   0.0000000   0.0000000   0.2500000), wk =   0.0006510
        k(    5) = (   0.0000000   0.0000000   0.3333333), wk =   0.0006510
        k(    6) = (   0.0000000   0.0000000   0.4166667), wk =   0.0006510
        k(    7) = (   0.0000000   0.0000000  -0.5000000), wk =   0.0003255
        k(    8) = (   0.0000000   0.0625000   0.0000000), wk =   0.0013021
        k(    9) = (   0.0000000   0.0625000   0.0833333), wk =   0.0026042
        k(   10) = (   0.0000000   0.0625000   0.1666667), wk =   0.0026042
        k(   11) = (   0.0000000   0.0625000   0.2500000), wk =   0.0026042
        k(   12) = (   0.0000000   0.0625000   0.3333333), wk =   0.0026042
        k(   13) = (   0.0000000   0.0625000   0.4166667), wk =   0.0026042
        k(   14) = (   0.0000000   0.0625000  -0.5000000), wk =   0.0013021
        k(   15) = (   0.0000000   0.1250000   0.0000000), wk =   0.0013021
        k(   16) = (   0.0000000   0.1250000   0.0833333), wk =   0.0026042
        k(   17) = (   0.0000000   0.1250000   0.1666667), wk =   0.0026042
        k(   18) = (   0.0000000   0.1250000   0.2500000), wk =   0.0026042
        k(   19) = (   0.0000000   0.1250000   0.3333333), wk =   0.0026042
        k(   20) = (   0.0000000   0.1250000   0.4166667), wk =   0.0026042
        k(   21) = (   0.0000000   0.1250000  -0.5000000), wk =   0.0013021
        k(   22) = (   0.0000000   0.1875000   0.0000000), wk =   0.0013021
        k(   23) = (   0.0000000   0.1875000   0.0833333), wk =   0.0026042
        k(   24) = (   0.0000000   0.1875000   0.1666667), wk =   0.0026042
        k(   25) = (   0.0000000   0.1875000   0.2500000), wk =   0.0026042
        k(   26) = (   0.0000000   0.1875000   0.3333333), wk =   0.0026042
        k(   27) = (   0.0000000   0.1875000   0.4166667), wk =   0.0026042
        k(   28) = (   0.0000000   0.1875000  -0.5000000), wk =   0.0013021
        k(   29) = (   0.0000000   0.2500000   0.0000000), wk =   0.0013021
        k(   30) = (   0.0000000   0.2500000   0.0833333), wk =   0.0026042
        k(   31) = (   0.0000000   0.2500000   0.1666667), wk =   0.0026042
        k(   32) = (   0.0000000   0.2500000   0.2500000), wk =   0.0026042
        k(   33) = (   0.0000000   0.2500000   0.3333333), wk =   0.0026042
        k(   34) = (   0.0000000   0.2500000   0.4166667), wk =   0.0026042
        k(   35) = (   0.0000000   0.2500000  -0.5000000), wk =   0.0013021
        k(   36) = (   0.0000000   0.3125000   0.0000000), wk =   0.0013021
        k(   37) = (   0.0000000   0.3125000   0.0833333), wk =   0.0026042
        k(   38) = (   0.0000000   0.3125000   0.1666667), wk =   0.0026042
        k(   39) = (   0.0000000   0.3125000   0.2500000), wk =   0.0026042
        k(   40) = (   0.0000000   0.3125000   0.3333333), wk =   0.0026042
        k(   41) = (   0.0000000   0.3125000   0.4166667), wk =   0.0026042
        k(   42) = (   0.0000000   0.3125000  -0.5000000), wk =   0.0013021
        k(   43) = (   0.0000000   0.3750000   0.0000000), wk =   0.0013021
        k(   44) = (   0.0000000   0.3750000   0.0833333), wk =   0.0026042
        k(   45) = (   0.0000000   0.3750000   0.1666667), wk =   0.0026042
        k(   46) = (   0.0000000   0.3750000   0.2500000), wk =   0.0026042
        k(   47) = (   0.0000000   0.3750000   0.3333333), wk =   0.0026042
        k(   48) = (   0.0000000   0.3750000   0.4166667), wk =   0.0026042
        k(   49) = (   0.0000000   0.3750000  -0.5000000), wk =   0.0013021
        k(   50) = (   0.0000000   0.4375000   0.0000000), wk =   0.0013021
        k(   51) = (   0.0000000   0.4375000   0.0833333), wk =   0.0026042
        k(   52) = (   0.0000000   0.4375000   0.1666667), wk =   0.0026042
        k(   53) = (   0.0000000   0.4375000   0.2500000), wk =   0.0026042
        k(   54) = (   0.0000000   0.4375000   0.3333333), wk =   0.0026042
        k(   55) = (   0.0000000   0.4375000   0.4166667), wk =   0.0026042
        k(   56) = (   0.0000000   0.4375000  -0.5000000), wk =   0.0013021
        k(   57) = (   0.0000000  -0.5000000   0.0000000), wk =   0.0006510
        k(   58) = (   0.0000000  -0.5000000   0.0833333), wk =   0.0013021
        k(   59) = (   0.0000000  -0.5000000   0.1666667), wk =   0.0013021
        k(   60) = (   0.0000000  -0.5000000   0.2500000), wk =   0.0013021
        k(   61) = (   0.0000000  -0.5000000   0.3333333), wk =   0.0013021
        k(   62) = (   0.0000000  -0.5000000   0.4166667), wk =   0.0013021
        k(   63) = (   0.0000000  -0.5000000  -0.5000000), wk =   0.0006510
        k(   64) = (   0.0625000   0.0625000   0.0000000), wk =   0.0013021
        k(   65) = (   0.0625000   0.0625000   0.0833333), wk =   0.0026042
        k(   66) = (   0.0625000   0.0625000   0.1666667), wk =   0.0026042
        k(   67) = (   0.0625000   0.0625000   0.2500000), wk =   0.0026042
        k(   68) = (   0.0625000   0.0625000   0.3333333), wk =   0.0026042
        k(   69) = (   0.0625000   0.0625000   0.4166667), wk =   0.0026042
        k(   70) = (   0.0625000   0.0625000  -0.5000000), wk =   0.0013021
        k(   71) = (   0.0625000   0.1250000   0.0000000), wk =   0.0026042
        k(   72) = (   0.0625000   0.1250000   0.0833333), wk =   0.0052083
        k(   73) = (   0.0625000   0.1250000   0.1666667), wk =   0.0052083
        k(   74) = (   0.0625000   0.1250000   0.2500000), wk =   0.0052083
        k(   75) = (   0.0625000   0.1250000   0.3333333), wk =   0.0052083
        k(   76) = (   0.0625000   0.1250000   0.4166667), wk =   0.0052083
        k(   77) = (   0.0625000   0.1250000  -0.5000000), wk =   0.0026042
        k(   78) = (   0.0625000   0.1875000   0.0000000), wk =   0.0026042
        k(   79) = (   0.0625000   0.1875000   0.0833333), wk =   0.0052083
        k(   80) = (   0.0625000   0.1875000   0.1666667), wk =   0.0052083
        k(   81) = (   0.0625000   0.1875000   0.2500000), wk =   0.0052083
        k(   82) = (   0.0625000   0.1875000   0.3333333), wk =   0.0052083
        k(   83) = (   0.0625000   0.1875000   0.4166667), wk =   0.0052083
        k(   84) = (   0.0625000   0.1875000  -0.5000000), wk =   0.0026042
        k(   85) = (   0.0625000   0.2500000   0.0000000), wk =   0.0026042
        k(   86) = (   0.0625000   0.2500000   0.0833333), wk =   0.0052083
        k(   87) = (   0.0625000   0.2500000   0.1666667), wk =   0.0052083
        k(   88) = (   0.0625000   0.2500000   0.2500000), wk =   0.0052083
        k(   89) = (   0.0625000   0.2500000   0.3333333), wk =   0.0052083
        k(   90) = (   0.0625000   0.2500000   0.4166667), wk =   0.0052083
        k(   91) = (   0.0625000   0.2500000  -0.5000000), wk =   0.0026042
        k(   92) = (   0.0625000   0.3125000   0.0000000), wk =   0.0026042
        k(   93) = (   0.0625000   0.3125000   0.0833333), wk =   0.0052083
        k(   94) = (   0.0625000   0.3125000   0.1666667), wk =   0.0052083
        k(   95) = (   0.0625000   0.3125000   0.2500000), wk =   0.0052083
        k(   96) = (   0.0625000   0.3125000   0.3333333), wk =   0.0052083
        k(   97) = (   0.0625000   0.3125000   0.4166667), wk =   0.0052083
        k(   98) = (   0.0625000   0.3125000  -0.5000000), wk =   0.0026042
        k(   99) = (   0.0625000   0.3750000   0.0000000), wk =   0.0026042
        k(  100) = (   0.0625000   0.3750000   0.0833333), wk =   0.0052083
        k(  101) = (   0.0625000   0.3750000   0.1666667), wk =   0.0052083
        k(  102) = (   0.0625000   0.3750000   0.2500000), wk =   0.0052083
        k(  103) = (   0.0625000   0.3750000   0.3333333), wk =   0.0052083
        k(  104) = (   0.0625000   0.3750000   0.4166667), wk =   0.0052083
        k(  105) = (   0.0625000   0.3750000  -0.5000000), wk =   0.0026042
        k(  106) = (   0.0625000   0.4375000   0.0000000), wk =   0.0026042
        k(  107) = (   0.0625000   0.4375000   0.0833333), wk =   0.0052083
        k(  108) = (   0.0625000   0.4375000   0.1666667), wk =   0.0052083
        k(  109) = (   0.0625000   0.4375000   0.2500000), wk =   0.0052083
        k(  110) = (   0.0625000   0.4375000   0.3333333), wk =   0.0052083
        k(  111) = (   0.0625000   0.4375000   0.4166667), wk =   0.0052083
        k(  112) = (   0.0625000   0.4375000  -0.5000000), wk =   0.0026042
        k(  113) = (   0.0625000  -0.5000000   0.0000000), wk =   0.0013021
        k(  114) = (   0.0625000  -0.5000000   0.0833333), wk =   0.0026042
        k(  115) = (   0.0625000  -0.5000000   0.1666667), wk =   0.0026042
        k(  116) = (   0.0625000  -0.5000000   0.2500000), wk =   0.0026042
        k(  117) = (   0.0625000  -0.5000000   0.3333333), wk =   0.0026042
        k(  118) = (   0.0625000  -0.5000000   0.4166667), wk =   0.0026042
        k(  119) = (   0.0625000  -0.5000000  -0.5000000), wk =   0.0013021
        k(  120) = (   0.1250000   0.1250000   0.0000000), wk =   0.0013021
        k(  121) = (   0.1250000   0.1250000   0.0833333), wk =   0.0026042
        k(  122) = (   0.1250000   0.1250000   0.1666667), wk =   0.0026042
        k(  123) = (   0.1250000   0.1250000   0.2500000), wk =   0.0026042
        k(  124) = (   0.1250000   0.1250000   0.3333333), wk =   0.0026042
        k(  125) = (   0.1250000   0.1250000   0.4166667), wk =   0.0026042
        k(  126) = (   0.1250000   0.1250000  -0.5000000), wk =   0.0013021
        k(  127) = (   0.1250000   0.1875000   0.0000000), wk =   0.0026042
        k(  128) = (   0.1250000   0.1875000   0.0833333), wk =   0.0052083
        k(  129) = (   0.1250000   0.1875000   0.1666667), wk =   0.0052083
        k(  130) = (   0.1250000   0.1875000   0.2500000), wk =   0.0052083
        k(  131) = (   0.1250000   0.1875000   0.3333333), wk =   0.0052083
        k(  132) = (   0.1250000   0.1875000   0.4166667), wk =   0.0052083
        k(  133) = (   0.1250000   0.1875000  -0.5000000), wk =   0.0026042
        k(  134) = (   0.1250000   0.2500000   0.0000000), wk =   0.0026042
        k(  135) = (   0.1250000   0.2500000   0.0833333), wk =   0.0052083
        k(  136) = (   0.1250000   0.2500000   0.1666667), wk =   0.0052083
        k(  137) = (   0.1250000   0.2500000   0.2500000), wk =   0.0052083
        k(  138) = (   0.1250000   0.2500000   0.3333333), wk =   0.0052083
        k(  139) = (   0.1250000   0.2500000   0.4166667), wk =   0.0052083
        k(  140) = (   0.1250000   0.2500000  -0.5000000), wk =   0.0026042
        k(  141) = (   0.1250000   0.3125000   0.0000000), wk =   0.0026042
        k(  142) = (   0.1250000   0.3125000   0.0833333), wk =   0.0052083
        k(  143) = (   0.1250000   0.3125000   0.1666667), wk =   0.0052083
        k(  144) = (   0.1250000   0.3125000   0.2500000), wk =   0.0052083
        k(  145) = (   0.1250000   0.3125000   0.3333333), wk =   0.0052083
        k(  146) = (   0.1250000   0.3125000   0.4166667), wk =   0.0052083
        k(  147) = (   0.1250000   0.3125000  -0.5000000), wk =   0.0026042
        k(  148) = (   0.1250000   0.3750000   0.0000000), wk =   0.0026042
        k(  149) = (   0.1250000   0.3750000   0.0833333), wk =   0.0052083
        k(  150) = (   0.1250000   0.3750000   0.1666667), wk =   0.0052083
        k(  151) = (   0.1250000   0.3750000   0.2500000), wk =   0.0052083
        k(  152) = (   0.1250000   0.3750000   0.3333333), wk =   0.0052083
        k(  153) = (   0.1250000   0.3750000   0.4166667), wk =   0.0052083
        k(  154) = (   0.1250000   0.3750000  -0.5000000), wk =   0.0026042
        k(  155) = (   0.1250000   0.4375000   0.0000000), wk =   0.0026042
        k(  156) = (   0.1250000   0.4375000   0.0833333), wk =   0.0052083
        k(  157) = (   0.1250000   0.4375000   0.1666667), wk =   0.0052083
        k(  158) = (   0.1250000   0.4375000   0.2500000), wk =   0.0052083
        k(  159) = (   0.1250000   0.4375000   0.3333333), wk =   0.0052083
        k(  160) = (   0.1250000   0.4375000   0.4166667), wk =   0.0052083
        k(  161) = (   0.1250000   0.4375000  -0.5000000), wk =   0.0026042
        k(  162) = (   0.1250000  -0.5000000   0.0000000), wk =   0.0013021
        k(  163) = (   0.1250000  -0.5000000   0.0833333), wk =   0.0026042
        k(  164) = (   0.1250000  -0.5000000   0.1666667), wk =   0.0026042
        k(  165) = (   0.1250000  -0.5000000   0.2500000), wk =   0.0026042
        k(  166) = (   0.1250000  -0.5000000   0.3333333), wk =   0.0026042
        k(  167) = (   0.1250000  -0.5000000   0.4166667), wk =   0.0026042
        k(  168) = (   0.1250000  -0.5000000  -0.5000000), wk =   0.0013021
        k(  169) = (   0.1875000   0.1875000   0.0000000), wk =   0.0013021
        k(  170) = (   0.1875000   0.1875000   0.0833333), wk =   0.0026042
        k(  171) = (   0.1875000   0.1875000   0.1666667), wk =   0.0026042
        k(  172) = (   0.1875000   0.1875000   0.2500000), wk =   0.0026042
        k(  173) = (   0.1875000   0.1875000   0.3333333), wk =   0.0026042
        k(  174) = (   0.1875000   0.1875000   0.4166667), wk =   0.0026042
        k(  175) = (   0.1875000   0.1875000  -0.5000000), wk =   0.0013021
        k(  176) = (   0.1875000   0.2500000   0.0000000), wk =   0.0026042
        k(  177) = (   0.1875000   0.2500000   0.0833333), wk =   0.0052083
        k(  178) = (   0.1875000   0.2500000   0.1666667), wk =   0.0052083
        k(  179) = (   0.1875000   0.2500000   0.2500000), wk =   0.0052083
        k(  180) = (   0.1875000   0.2500000   0.3333333), wk =   0.0052083
        k(  181) = (   0.1875000   0.2500000   0.4166667), wk =   0.0052083
        k(  182) = (   0.1875000   0.2500000  -0.5000000), wk =   0.0026042
        k(  183) = (   0.1875000   0.3125000   0.0000000), wk =   0.0026042
        k(  184) = (   0.1875000   0.3125000   0.0833333), wk =   0.0052083
        k(  185) = (   0.1875000   0.3125000   0.1666667), wk =   0.0052083
        k(  186) = (   0.1875000   0.3125000   0.2500000), wk =   0.0052083
        k(  187) = (   0.1875000   0.3125000   0.3333333), wk =   0.0052083
        k(  188) = (   0.1875000   0.3125000   0.4166667), wk =   0.0052083
        k(  189) = (   0.1875000   0.3125000  -0.5000000), wk =   0.0026042
        k(  190) = (   0.1875000   0.3750000   0.0000000), wk =   0.0026042
        k(  191) = (   0.1875000   0.3750000   0.0833333), wk =   0.0052083
        k(  192) = (   0.1875000   0.3750000   0.1666667), wk =   0.0052083
        k(  193) = (   0.1875000   0.3750000   0.2500000), wk =   0.0052083
        k(  194) = (   0.1875000   0.3750000   0.3333333), wk =   0.0052083
        k(  195) = (   0.1875000   0.3750000   0.4166667), wk =   0.0052083
        k(  196) = (   0.1875000   0.3750000  -0.5000000), wk =   0.0026042
        k(  197) = (   0.1875000   0.4375000   0.0000000), wk =   0.0026042
        k(  198) = (   0.1875000   0.4375000   0.0833333), wk =   0.0052083
        k(  199) = (   0.1875000   0.4375000   0.1666667), wk =   0.0052083
        k(  200) = (   0.1875000   0.4375000   0.2500000), wk =   0.0052083
        k(  201) = (   0.1875000   0.4375000   0.3333333), wk =   0.0052083
        k(  202) = (   0.1875000   0.4375000   0.4166667), wk =   0.0052083
        k(  203) = (   0.1875000   0.4375000  -0.5000000), wk =   0.0026042
        k(  204) = (   0.1875000  -0.5000000   0.0000000), wk =   0.0013021
        k(  205) = (   0.1875000  -0.5000000   0.0833333), wk =   0.0026042
        k(  206) = (   0.1875000  -0.5000000   0.1666667), wk =   0.0026042
        k(  207) = (   0.1875000  -0.5000000   0.2500000), wk =   0.0026042
        k(  208) = (   0.1875000  -0.5000000   0.3333333), wk =   0.0026042
        k(  209) = (   0.1875000  -0.5000000   0.4166667), wk =   0.0026042
        k(  210) = (   0.1875000  -0.5000000  -0.5000000), wk =   0.0013021
        k(  211) = (   0.2500000   0.2500000   0.0000000), wk =   0.0013021
        k(  212) = (   0.2500000   0.2500000   0.0833333), wk =   0.0026042
        k(  213) = (   0.2500000   0.2500000   0.1666667), wk =   0.0026042
        k(  214) = (   0.2500000   0.2500000   0.2500000), wk =   0.0026042
        k(  215) = (   0.2500000   0.2500000   0.3333333), wk =   0.0026042
        k(  216) = (   0.2500000   0.2500000   0.4166667), wk =   0.0026042
        k(  217) = (   0.2500000   0.2500000  -0.5000000), wk =   0.0013021
        k(  218) = (   0.2500000   0.3125000   0.0000000), wk =   0.0026042
        k(  219) = (   0.2500000   0.3125000   0.0833333), wk =   0.0052083
        k(  220) = (   0.2500000   0.3125000   0.1666667), wk =   0.0052083
        k(  221) = (   0.2500000   0.3125000   0.2500000), wk =   0.0052083
        k(  222) = (   0.2500000   0.3125000   0.3333333), wk =   0.0052083
        k(  223) = (   0.2500000   0.3125000   0.4166667), wk =   0.0052083
        k(  224) = (   0.2500000   0.3125000  -0.5000000), wk =   0.0026042
        k(  225) = (   0.2500000   0.3750000   0.0000000), wk =   0.0026042
        k(  226) = (   0.2500000   0.3750000   0.0833333), wk =   0.0052083
        k(  227) = (   0.2500000   0.3750000   0.1666667), wk =   0.0052083
        k(  228) = (   0.2500000   0.3750000   0.2500000), wk =   0.0052083
        k(  229) = (   0.2500000   0.3750000   0.3333333), wk =   0.0052083
        k(  230) = (   0.2500000   0.3750000   0.4166667), wk =   0.0052083
        k(  231) = (   0.2500000   0.3750000  -0.5000000), wk =   0.0026042
        k(  232) = (   0.2500000   0.4375000   0.0000000), wk =   0.0026042
        k(  233) = (   0.2500000   0.4375000   0.0833333), wk =   0.0052083
        k(  234) = (   0.2500000   0.4375000   0.1666667), wk =   0.0052083
        k(  235) = (   0.2500000   0.4375000   0.2500000), wk =   0.0052083
        k(  236) = (   0.2500000   0.4375000   0.3333333), wk =   0.0052083
        k(  237) = (   0.2500000   0.4375000   0.4166667), wk =   0.0052083
        k(  238) = (   0.2500000   0.4375000  -0.5000000), wk =   0.0026042
        k(  239) = (   0.2500000  -0.5000000   0.0000000), wk =   0.0013021
        k(  240) = (   0.2500000  -0.5000000   0.0833333), wk =   0.0026042
        k(  241) = (   0.2500000  -0.5000000   0.1666667), wk =   0.0026042
        k(  242) = (   0.2500000  -0.5000000   0.2500000), wk =   0.0026042
        k(  243) = (   0.2500000  -0.5000000   0.3333333), wk =   0.0026042
        k(  244) = (   0.2500000  -0.5000000   0.4166667), wk =   0.0026042
        k(  245) = (   0.2500000  -0.5000000  -0.5000000), wk =   0.0013021
        k(  246) = (   0.3125000   0.3125000   0.0000000), wk =   0.0013021
        k(  247) = (   0.3125000   0.3125000   0.0833333), wk =   0.0026042
        k(  248) = (   0.3125000   0.3125000   0.1666667), wk =   0.0026042
        k(  249) = (   0.3125000   0.3125000   0.2500000), wk =   0.0026042
        k(  250) = (   0.3125000   0.3125000   0.3333333), wk =   0.0026042
        k(  251) = (   0.3125000   0.3125000   0.4166667), wk =   0.0026042
        k(  252) = (   0.3125000   0.3125000  -0.5000000), wk =   0.0013021
        k(  253) = (   0.3125000   0.3750000   0.0000000), wk =   0.0026042
        k(  254) = (   0.3125000   0.3750000   0.0833333), wk =   0.0052083
        k(  255) = (   0.3125000   0.3750000   0.1666667), wk =   0.0052083
        k(  256) = (   0.3125000   0.3750000   0.2500000), wk =   0.0052083
        k(  257) = (   0.3125000   0.3750000   0.3333333), wk =   0.0052083
        k(  258) = (   0.3125000   0.3750000   0.4166667), wk =   0.0052083
        k(  259) = (   0.3125000   0.3750000  -0.5000000), wk =   0.0026042
        k(  260) = (   0.3125000   0.4375000   0.0000000), wk =   0.0026042
        k(  261) = (   0.3125000   0.4375000   0.0833333), wk =   0.0052083
        k(  262) = (   0.3125000   0.4375000   0.1666667), wk =   0.0052083
        k(  263) = (   0.3125000   0.4375000   0.2500000), wk =   0.0052083
        k(  264) = (   0.3125000   0.4375000   0.3333333), wk =   0.0052083
        k(  265) = (   0.3125000   0.4375000   0.4166667), wk =   0.0052083
        k(  266) = (   0.3125000   0.4375000  -0.5000000), wk =   0.0026042
        k(  267) = (   0.3125000  -0.5000000   0.0000000), wk =   0.0013021
        k(  268) = (   0.3125000  -0.5000000   0.0833333), wk =   0.0026042
        k(  269) = (   0.3125000  -0.5000000   0.1666667), wk =   0.0026042
        k(  270) = (   0.3125000  -0.5000000   0.2500000), wk =   0.0026042
        k(  271) = (   0.3125000  -0.5000000   0.3333333), wk =   0.0026042
        k(  272) = (   0.3125000  -0.5000000   0.4166667), wk =   0.0026042
        k(  273) = (   0.3125000  -0.5000000  -0.5000000), wk =   0.0013021
        k(  274) = (   0.3750000   0.3750000   0.0000000), wk =   0.0013021
        k(  275) = (   0.3750000   0.3750000   0.0833333), wk =   0.0026042
        k(  276) = (   0.3750000   0.3750000   0.1666667), wk =   0.0026042
        k(  277) = (   0.3750000   0.3750000   0.2500000), wk =   0.0026042
        k(  278) = (   0.3750000   0.3750000   0.3333333), wk =   0.0026042
        k(  279) = (   0.3750000   0.3750000   0.4166667), wk =   0.0026042
        k(  280) = (   0.3750000   0.3750000  -0.5000000), wk =   0.0013021
        k(  281) = (   0.3750000   0.4375000   0.0000000), wk =   0.0026042
        k(  282) = (   0.3750000   0.4375000   0.0833333), wk =   0.0052083
        k(  283) = (   0.3750000   0.4375000   0.1666667), wk =   0.0052083
        k(  284) = (   0.3750000   0.4375000   0.2500000), wk =   0.0052083
        k(  285) = (   0.3750000   0.4375000   0.3333333), wk =   0.0052083
        k(  286) = (   0.3750000   0.4375000   0.4166667), wk =   0.0052083
        k(  287) = (   0.3750000   0.4375000  -0.5000000), wk =   0.0026042
        k(  288) = (   0.3750000  -0.5000000   0.0000000), wk =   0.0013021
        k(  289) = (   0.3750000  -0.5000000   0.0833333), wk =   0.0026042
        k(  290) = (   0.3750000  -0.5000000   0.1666667), wk =   0.0026042
        k(  291) = (   0.3750000  -0.5000000   0.2500000), wk =   0.0026042
        k(  292) = (   0.3750000  -0.5000000   0.3333333), wk =   0.0026042
        k(  293) = (   0.3750000  -0.5000000   0.4166667), wk =   0.0026042
        k(  294) = (   0.3750000  -0.5000000  -0.5000000), wk =   0.0013021
        k(  295) = (   0.4375000   0.4375000   0.0000000), wk =   0.0013021
        k(  296) = (   0.4375000   0.4375000   0.0833333), wk =   0.0026042
        k(  297) = (   0.4375000   0.4375000   0.1666667), wk =   0.0026042
        k(  298) = (   0.4375000   0.4375000   0.2500000), wk =   0.0026042
        k(  299) = (   0.4375000   0.4375000   0.3333333), wk =   0.0026042
        k(  300) = (   0.4375000   0.4375000   0.4166667), wk =   0.0026042
        k(  301) = (   0.4375000   0.4375000  -0.5000000), wk =   0.0013021
        k(  302) = (   0.4375000  -0.5000000   0.0000000), wk =   0.0013021
        k(  303) = (   0.4375000  -0.5000000   0.0833333), wk =   0.0026042
        k(  304) = (   0.4375000  -0.5000000   0.1666667), wk =   0.0026042
        k(  305) = (   0.4375000  -0.5000000   0.2500000), wk =   0.0026042
        k(  306) = (   0.4375000  -0.5000000   0.3333333), wk =   0.0026042
        k(  307) = (   0.4375000  -0.5000000   0.4166667), wk =   0.0026042
        k(  308) = (   0.4375000  -0.5000000  -0.5000000), wk =   0.0013021
        k(  309) = (  -0.5000000  -0.5000000   0.0000000), wk =   0.0003255
        k(  310) = (  -0.5000000  -0.5000000   0.0833333), wk =   0.0006510
        k(  311) = (  -0.5000000  -0.5000000   0.1666667), wk =   0.0006510
        k(  312) = (  -0.5000000  -0.5000000   0.2500000), wk =   0.0006510
        k(  313) = (  -0.5000000  -0.5000000   0.3333333), wk =   0.0006510
        k(  314) = (  -0.5000000  -0.5000000   0.4166667), wk =   0.0006510
        k(  315) = (  -0.5000000  -0.5000000  -0.5000000), wk =   0.0003255

     Dense  grid:    67277 G-vectors     FFT dimensions: (  45,  45,  64)

     Smooth grid:    12939 G-vectors     FFT dimensions: (  27,  27,  36)

     Dynamical RAM for                 wfc:       0.47 MB

     Dynamical RAM for     wfc (w. buffer):     295.81 MB

     Dynamical RAM for           str. fact:       2.05 MB

     Dynamical RAM for           local pot:       0.00 MB

     Dynamical RAM for          nlocal pot:       0.96 MB

     Dynamical RAM for                qrad:       5.97 MB

     Dynamical RAM for          rho,v,vnew:      12.09 MB

     Dynamical RAM for               rhoin:       4.03 MB

     Dynamical RAM for            rho*nmix:      32.85 MB

     Dynamical RAM for           G-vectors:       3.95 MB

     Dynamical RAM for          h,s,v(r/c):       0.07 MB

     Dynamical RAM for          <psi|beta>:       0.01 MB

     Dynamical RAM for                 psi:       0.94 MB

     Dynamical RAM for                hpsi:       0.94 MB

     Dynamical RAM for                spsi:       0.94 MB

     Dynamical RAM for      wfcinit/wfcrot:       0.95 MB

     Dynamical RAM for           addusdens:     254.59 MB

     Dynamical RAM for          addusforce:     254.60 MB

     Dynamical RAM for         addusstress:     269.47 MB

     Estimated static dynamical RAM per process >     333.88 MB

     Estimated max dynamical RAM per process >     636.21 MB

     Atomic positions and unit cell read from directory:
     ./out/aiida.save/
 

     Check: negative core charge=   -0.000009
     Generating pointlists ...
     new r_m :   0.4013 (alat units)  2.0673 (a.u.) for type    1
     new r_m :   0.4013 (alat units)  2.0673 (a.u.) for type    2

     The initial density is read from file :
     ./out/aiida.save/charge-density


     negative rho (up, down):  1.539E-01 1.563E-01
     Starting wfcs from file

     total cpu time spent up to now is        3.4 secs

     per-process dynamical memory:   398.9 Mb

     Self-consistent Calculation
[tb_dev] Currently allocated     1.53E-05 Mbytes, locked:    0 /   2
[tb_pin] Currently allocated     0.00E+00 Mbytes, locked:    0 /   0

     iteration #  1     ecut=    65.00 Ry     beta= 0.20
     Davidson diagonalization with overlap

---- Real-time Memory Report at c_bands before calling an iterative solver
           511 MiB given to the printing process from OS
           392 MiB allocation reported by mallinfo(arena+hblkhd)
         59537 MiB available memory on the node where the printing process lives
     GPU memory used/free/total (MiB): 628 / 15652 / 16280
------------------
     ethr =  1.00E-05,  avg # of iterations =  1.5

     Threshold (ethr) on eigenvalues was too large:
     Diagonalizing with lowered threshold

     Davidson diagonalization with overlap

---- Real-time Memory Report at c_bands before calling an iterative solver
          1179 MiB given to the printing process from OS
           988 MiB allocation reported by mallinfo(arena+hblkhd)
         58196 MiB available memory on the node where the printing process lives
     GPU memory used/free/total (MiB): 1058 / 15222 / 16280
------------------
     ethr =  1.27E-08,  avg # of iterations =  2.8

     negative rho (up, down):  1.540E-01 1.563E-01

     total cpu time spent up to now is       18.1 secs

     total energy              =    -392.75305906 Ry
     estimated scf accuracy    <       0.00000426 Ry

     total magnetization       =     2.31 Bohr mag/cell
     absolute magnetization    =     2.71 Bohr mag/cell
[tb_dev] Currently allocated     1.28E+00 Mbytes, locked:    0 /  10
[tb_pin] Currently allocated     0.00E+00 Mbytes, locked:    0 /   0

     iteration #  2     ecut=    65.00 Ry     beta= 0.20
     Davidson diagonalization with overlap

---- Real-time Memory Report at c_bands before calling an iterative solver
          1193 MiB given to the printing process from OS
          1006 MiB allocation reported by mallinfo(arena+hblkhd)
         58191 MiB available memory on the node where the printing process lives
     GPU memory used/free/total (MiB): 1064 / 15216 / 16280
------------------
     ethr =  1.42E-08,  avg # of iterations =  1.5

     negative rho (up, down):  1.539E-01 1.563E-01

     total cpu time spent up to now is       24.1 secs

     total energy              =    -392.75305935 Ry
     estimated scf accuracy    <       0.00000738 Ry

     total magnetization       =     2.31 Bohr mag/cell
     absolute magnetization    =     2.71 Bohr mag/cell
[tb_dev] Currently allocated     1.28E+00 Mbytes, locked:    0 /  10
[tb_pin] Currently allocated     0.00E+00 Mbytes, locked:    0 /   0

     iteration #  3     ecut=    65.00 Ry     beta= 0.20
     Davidson diagonalization with overlap

---- Real-time Memory Report at c_bands before calling an iterative solver
          1195 MiB given to the printing process from OS
          1007 MiB allocation reported by mallinfo(arena+hblkhd)
         58191 MiB available memory on the node where the printing process lives
     GPU memory used/free/total (MiB): 1064 / 15216 / 16280
------------------
     ethr =  1.42E-08,  avg # of iterations =  1.0

     negative rho (up, down):  1.539E-01 1.563E-01

     total cpu time spent up to now is       30.0 secs

     total energy              =    -392.75306029 Ry
     estimated scf accuracy    <       0.00000135 Ry

     total magnetization       =     2.31 Bohr mag/cell
     absolute magnetization    =     2.71 Bohr mag/cell
[tb_dev] Currently allocated     1.28E+00 Mbytes, locked:    0 /  10
[tb_pin] Currently allocated     0.00E+00 Mbytes, locked:    0 /   0

     iteration #  4     ecut=    65.00 Ry     beta= 0.20
     Davidson diagonalization with overlap

---- Real-time Memory Report at c_bands before calling an iterative solver
          1196 MiB given to the printing process from OS
          1007 MiB allocation reported by mallinfo(arena+hblkhd)
         58189 MiB available memory on the node where the printing process lives
     GPU memory used/free/total (MiB): 1064 / 15216 / 16280
------------------
     ethr =  4.51E-09,  avg # of iterations =  1.2

     negative rho (up, down):  1.539E-01 1.562E-01

     total cpu time spent up to now is       35.7 secs

     total energy              =    -392.75306018 Ry
     estimated scf accuracy    <       0.00000111 Ry

     total magnetization       =     2.31 Bohr mag/cell
     absolute magnetization    =     2.70 Bohr mag/cell
[tb_dev] Currently allocated     1.28E+00 Mbytes, locked:    0 /  10
[tb_pin] Currently allocated     0.00E+00 Mbytes, locked:    0 /   0

     iteration #  5     ecut=    65.00 Ry     beta= 0.20
     Davidson diagonalization with overlap

---- Real-time Memory Report at c_bands before calling an iterative solver
          1198 MiB given to the printing process from OS
          1008 MiB allocation reported by mallinfo(arena+hblkhd)
         58189 MiB available memory on the node where the printing process lives
     GPU memory used/free/total (MiB): 1064 / 15216 / 16280
------------------
     ethr =  3.72E-09,  avg # of iterations =  1.0

     negative rho (up, down):  1.539E-01 1.562E-01

     total cpu time spent up to now is       41.2 secs

     total energy              =    -392.75306024 Ry
     estimated scf accuracy    <       0.00000119 Ry

     total magnetization       =     2.31 Bohr mag/cell
     absolute magnetization    =     2.71 Bohr mag/cell
[tb_dev] Currently allocated     1.28E+00 Mbytes, locked:    0 /  10
[tb_pin] Currently allocated     0.00E+00 Mbytes, locked:    0 /   0

     iteration #  6     ecut=    65.00 Ry     beta= 0.20
     Davidson diagonalization with overlap

---- Real-time Memory Report at c_bands before calling an iterative solver
          1200 MiB given to the printing process from OS
          1009 MiB allocation reported by mallinfo(arena+hblkhd)
         58189 MiB available memory on the node where the printing process lives
     GPU memory used/free/total (MiB): 1064 / 15216 / 16280
------------------
     ethr =  3.72E-09,  avg # of iterations =  1.0

     negative rho (up, down):  1.539E-01 1.562E-01

     total cpu time spent up to now is       46.8 secs

     total energy              =    -392.75306025 Ry
     estimated scf accuracy    <       0.00000119 Ry

     total magnetization       =     2.31 Bohr mag/cell
     absolute magnetization    =     2.71 Bohr mag/cell
[tb_dev] Currently allocated     1.28E+00 Mbytes, locked:    0 /  10
[tb_pin] Currently allocated     0.00E+00 Mbytes, locked:    0 /   0

     iteration #  7     ecut=    65.00 Ry     beta= 0.20
     Davidson diagonalization with overlap

---- Real-time Memory Report at c_bands before calling an iterative solver
          1202 MiB given to the printing process from OS
          1010 MiB allocation reported by mallinfo(arena+hblkhd)
         58187 MiB available memory on the node where the printing process lives
     GPU memory used/free/total (MiB): 1064 / 15216 / 16280
------------------
     ethr =  3.72E-09,  avg # of iterations =  1.0

     negative rho (up, down):  1.540E-01 1.562E-01

     total cpu time spent up to now is       52.3 secs

     total energy              =    -392.75304149 Ry
     estimated scf accuracy    <       0.00000119 Ry

     total magnetization       =     2.31 Bohr mag/cell
     absolute magnetization    =     2.71 Bohr mag/cell
[tb_dev] Currently allocated     1.28E+00 Mbytes, locked:    0 /  10
[tb_pin] Currently allocated     0.00E+00 Mbytes, locked:    0 /   0

     iteration #  8     ecut=    65.00 Ry     beta= 0.20
     Davidson diagonalization with overlap

---- Real-time Memory Report at c_bands before calling an iterative solver
          1203 MiB given to the printing process from OS
          1010 MiB allocation reported by mallinfo(arena+hblkhd)
         58186 MiB available memory on the node where the printing process lives
     GPU memory used/free/total (MiB): 1064 / 15216 / 16280
------------------
     ethr =  3.72E-09,  avg # of iterations =  3.6

     negative rho (up, down):  1.542E-01 1.563E-01

     total cpu time spent up to now is       62.2 secs

     total energy              =    -392.75303185 Ry
     estimated scf accuracy    <       0.00000415 Ry

     total magnetization       =     2.33 Bohr mag/cell
     absolute magnetization    =     2.73 Bohr mag/cell
[tb_dev] Currently allocated     1.28E+00 Mbytes, locked:    0 /  10
[tb_pin] Currently allocated     0.00E+00 Mbytes, locked:    0 /   0

     iteration #  9     ecut=    65.00 Ry     beta= 0.20
     Davidson diagonalization with overlap

---- Real-time Memory Report at c_bands before calling an iterative solver
          1205 MiB given to the printing process from OS
          1011 MiB allocation reported by mallinfo(arena+hblkhd)
         58184 MiB available memory on the node where the printing process lives
     GPU memory used/free/total (MiB): 1090 / 15190 / 16280
------------------
     ethr =  3.72E-09,  avg # of iterations =  3.9

     negative rho (up, down):  1.542E-01 1.562E-01

     total cpu time spent up to now is       72.3 secs

     total energy              =    -392.75305455 Ry
     estimated scf accuracy    <       0.00002448 Ry

     total magnetization       =     2.37 Bohr mag/cell
     absolute magnetization    =     2.76 Bohr mag/cell
[tb_dev] Currently allocated     1.28E+00 Mbytes, locked:    0 /  10
[tb_pin] Currently allocated     0.00E+00 Mbytes, locked:    0 /   0

     iteration # 10     ecut=    65.00 Ry     beta= 0.20
     Davidson diagonalization with overlap

---- Real-time Memory Report at c_bands before calling an iterative solver
          1207 MiB given to the printing process from OS
          1012 MiB allocation reported by mallinfo(arena+hblkhd)
         58175 MiB available memory on the node where the printing process lives
     GPU memory used/free/total (MiB): 1090 / 15190 / 16280
------------------
     ethr =  3.72E-09,  avg # of iterations =  2.3

     negative rho (up, down):  1.541E-01 1.563E-01

     total cpu time spent up to now is       79.5 secs

     total energy              =    -392.75304972 Ry
     estimated scf accuracy    <       0.00002690 Ry

     total magnetization       =     2.38 Bohr mag/cell
     absolute magnetization    =     2.77 Bohr mag/cell
[tb_dev] Currently allocated     1.28E+00 Mbytes, locked:    0 /  10
[tb_pin] Currently allocated     0.00E+00 Mbytes, locked:    0 /   0

     iteration # 11     ecut=    65.00 Ry     beta= 0.20
     Davidson diagonalization with overlap

---- Real-time Memory Report at c_bands before calling an iterative solver
          1207 MiB given to the printing process from OS
          1012 MiB allocation reported by mallinfo(arena+hblkhd)
         58180 MiB available memory on the node where the printing process lives
     GPU memory used/free/total (MiB): 1090 / 15190 / 16280
------------------
     ethr =  3.72E-09,  avg # of iterations =  3.0

     negative rho (up, down):  1.541E-01 1.562E-01

     total cpu time spent up to now is       88.2 secs

     total energy              =    -392.75304762 Ry
     estimated scf accuracy    <       0.00002274 Ry

     total magnetization       =     2.36 Bohr mag/cell
     absolute magnetization    =     2.75 Bohr mag/cell
[tb_dev] Currently allocated     1.28E+00 Mbytes, locked:    0 /  10
[tb_pin] Currently allocated     0.00E+00 Mbytes, locked:    0 /   0

     iteration # 12     ecut=    65.00 Ry     beta= 0.20
     Davidson diagonalization with overlap

---- Real-time Memory Report at c_bands before calling an iterative solver
          1207 MiB given to the printing process from OS
          1012 MiB allocation reported by mallinfo(arena+hblkhd)
         58182 MiB available memory on the node where the printing process lives
     GPU memory used/free/total (MiB): 1090 / 15190 / 16280
------------------
     ethr =  3.72E-09,  avg # of iterations =  2.8

     negative rho (up, down):  1.542E-01 1.562E-01

     total cpu time spent up to now is       96.7 secs

     total energy              =    -392.75302073 Ry
     estimated scf accuracy    <       0.00001637 Ry

     total magnetization       =     2.38 Bohr mag/cell
     absolute magnetization    =     2.77 Bohr mag/cell
[tb_dev] Currently allocated     1.28E+00 Mbytes, locked:    0 /  10
[tb_pin] Currently allocated     0.00E+00 Mbytes, locked:    0 /   0

     iteration # 13     ecut=    65.00 Ry     beta= 0.20
     Davidson diagonalization with overlap

---- Real-time Memory Report at c_bands before calling an iterative solver
          1207 MiB given to the printing process from OS
          1012 MiB allocation reported by mallinfo(arena+hblkhd)
         58183 MiB available memory on the node where the printing process lives
     GPU memory used/free/total (MiB): 1090 / 15190 / 16280
------------------
     ethr =  3.72E-09,  avg # of iterations =  3.8

     negative rho (up, down):  1.537E-01 1.564E-01

     total cpu time spent up to now is      107.0 secs

     total energy              =    -392.75184930 Ry
     estimated scf accuracy    <       0.00001774 Ry

     total magnetization       =     2.41 Bohr mag/cell
     absolute magnetization    =     2.80 Bohr mag/cell
[tb_dev] Currently allocated     1.28E+00 Mbytes, locked:    0 /  10
[tb_pin] Currently allocated     0.00E+00 Mbytes, locked:    0 /   0

     iteration # 14     ecut=    65.00 Ry     beta= 0.20
     Davidson diagonalization with overlap

---- Real-time Memory Report at c_bands before calling an iterative solver
          1207 MiB given to the printing process from OS
          1012 MiB allocation reported by mallinfo(arena+hblkhd)
         58183 MiB available memory on the node where the printing process lives
     GPU memory used/free/total (MiB): 1090 / 15190 / 16280
------------------
     ethr =  3.72E-09,  avg # of iterations =  6.1

     negative rho (up, down):  1.539E-01 1.563E-01

     total cpu time spent up to now is      121.5 secs

     total energy              =    -392.75264476 Ry
     estimated scf accuracy    <       0.00008239 Ry

     total magnetization       =     2.15 Bohr mag/cell
     absolute magnetization    =     2.55 Bohr mag/cell
[tb_dev] Currently allocated     1.28E+00 Mbytes, locked:    0 /  10
[tb_pin] Currently allocated     0.00E+00 Mbytes, locked:    0 /   0

     iteration # 15     ecut=    65.00 Ry     beta= 0.20
     Davidson diagonalization with overlap

---- Real-time Memory Report at c_bands before calling an iterative solver
          1208 MiB given to the printing process from OS
          1012 MiB allocation reported by mallinfo(arena+hblkhd)
         58185 MiB available memory on the node where the printing process lives
     GPU memory used/free/total (MiB): 1090 / 15190 / 16280
------------------
     ethr =  3.72E-09,  avg # of iterations =  5.2

     negative rho (up, down):  1.539E-01 1.563E-01

     total cpu time spent up to now is      134.2 secs

     total energy              =    -392.75306444 Ry
     estimated scf accuracy    <       0.00000740 Ry

     total magnetization       =     2.30 Bohr mag/cell
     absolute magnetization    =     2.69 Bohr mag/cell
[tb_dev] Currently allocated     1.28E+00 Mbytes, locked:    0 /  10
[tb_pin] Currently allocated     0.00E+00 Mbytes, locked:    0 /   0

     iteration # 16     ecut=    65.00 Ry     beta= 0.20
     Davidson diagonalization with overlap

---- Real-time Memory Report at c_bands before calling an iterative solver
          1208 MiB given to the printing process from OS
          1012 MiB allocation reported by mallinfo(arena+hblkhd)
         58185 MiB available memory on the node where the printing process lives
     GPU memory used/free/total (MiB): 1090 / 15190 / 16280
------------------
     ethr =  3.72E-09,  avg # of iterations =  1.0

     negative rho (up, down):  1.539E-01 1.563E-01

     total cpu time spent up to now is      139.8 secs

     total energy              =    -392.75306451 Ry
     estimated scf accuracy    <       0.00000849 Ry

     total magnetization       =     2.29 Bohr mag/cell
     absolute magnetization    =     2.69 Bohr mag/cell
[tb_dev] Currently allocated     1.28E+00 Mbytes, locked:    0 /  10
[tb_pin] Currently allocated     0.00E+00 Mbytes, locked:    0 /   0

     iteration # 17     ecut=    65.00 Ry     beta= 0.20
     Davidson diagonalization with overlap

---- Real-time Memory Report at c_bands before calling an iterative solver
          1208 MiB given to the printing process from OS
          1012 MiB allocation reported by mallinfo(arena+hblkhd)
         58185 MiB available memory on the node where the printing process lives
     GPU memory used/free/total (MiB): 1090 / 15190 / 16280
------------------
     ethr =  3.72E-09,  avg # of iterations =  1.0

     negative rho (up, down):  1.539E-01 1.563E-01

     total cpu time spent up to now is      145.3 secs

     total energy              =    -392.75305642 Ry
     estimated scf accuracy    <       0.00000918 Ry

     total magnetization       =     2.29 Bohr mag/cell
     absolute magnetization    =     2.69 Bohr mag/cell
[tb_dev] Currently allocated     1.28E+00 Mbytes, locked:    0 /  10
[tb_pin] Currently allocated     0.00E+00 Mbytes, locked:    0 /   0

     iteration # 18     ecut=    65.00 Ry     beta= 0.20
     Davidson diagonalization with overlap

---- Real-time Memory Report at c_bands before calling an iterative solver
          1208 MiB given to the printing process from OS
          1012 MiB allocation reported by mallinfo(arena+hblkhd)
         58185 MiB available memory on the node where the printing process lives
     GPU memory used/free/total (MiB): 1090 / 15190 / 16280
------------------
     ethr =  3.72E-09,  avg # of iterations =  2.7

     negative rho (up, down):  1.539E-01 1.563E-01

     total cpu time spent up to now is      153.6 secs

     total energy              =    -392.75305862 Ry
     estimated scf accuracy    <       0.00000692 Ry

     total magnetization       =     2.31 Bohr mag/cell
     absolute magnetization    =     2.71 Bohr mag/cell
[...]
          1208 MiB given to the printing process from OS
          1012 MiB allocation reported by mallinfo(arena+hblkhd)
         58182 MiB available memory on the node where the printing process lives
     GPU memory used/free/total (MiB): 1090 / 15190 / 16280
------------------
     ethr =  3.72E-09,  avg # of iterations =  4.3

     negative rho (up, down):  1.539E-01 1.563E-01

     total cpu time spent up to now is      614.6 secs

     total energy              =    -392.75276030 Ry
     estimated scf accuracy    <       0.00000183 Ry

     total magnetization       =     2.42 Bohr mag/cell
     absolute magnetization    =     2.81 Bohr mag/cell
[tb_dev] Currently allocated     1.28E+00 Mbytes, locked:    0 /  10
[tb_pin] Currently allocated     0.00E+00 Mbytes, locked:    0 /   0

     iteration # 66     ecut=    65.00 Ry     beta= 0.20
     Davidson diagonalization with overlap

---- Real-time Memory Report at c_bands before calling an iterative solver
          1208 MiB given to the printing process from OS
          1012 MiB allocation reported by mallinfo(arena+hblkhd)
         58182 MiB available memory on the node where the printing process lives
     GPU memory used/free/total (MiB): 1090 / 15190 / 16280
------------------
     ethr =  3.72E-09,  avg # of iterations =  5.1

     negative rho (up, down):  1.541E-01 1.561E-01

     total cpu time spent up to now is      627.1 secs

     total energy              =    -392.75266108 Ry
     estimated scf accuracy    <       0.00000695 Ry

     total magnetization       =     2.29 Bohr mag/cell
     absolute magnetization    =     2.69 Bohr mag/cell
[tb_dev] Currently allocated     1.28E+00 Mbytes, locked:    0 /  10
[tb_pin] Currently allocated     0.00E+00 Mbytes, locked:    0 /   0

     iteration # 67     ecut=    65.00 Ry     beta= 0.20
     Davidson diagonalization with overlap

---- Real-time Memory Report at c_bands before calling an iterative solver
          1208 MiB given to the printing process from OS
          1012 MiB allocation reported by mallinfo(arena+hblkhd)
         58182 MiB available memory on the node where the printing process lives
     GPU memory used/free/total (MiB): 1090 / 15190 / 16280
------------------
     ethr =  3.72E-09,  avg # of iterations =  5.2

     negative rho (up, down):  1.542E-01 1.561E-01

     total cpu time spent up to now is      639.7 secs

     total energy              =    -392.75303345 Ry
     estimated scf accuracy    <       0.00000243 Ry

     total magnetization       =     2.43 Bohr mag/cell
     absolute magnetization    =     2.82 Bohr mag/cell
[tb_dev] Currently allocated     1.28E+00 Mbytes, locked:    0 /  10
[tb_pin] Currently allocated     0.00E+00 Mbytes, locked:    0 /   0

     iteration # 68     ecut=    65.00 Ry     beta= 0.20
     Davidson diagonalization with overlap

---- Real-time Memory Report at c_bands before calling an iterative solver
          1208 MiB given to the printing process from OS
          1012 MiB allocation reported by mallinfo(arena+hblkhd)
         58182 MiB available memory on the node where the printing process lives
     GPU memory used/free/total (MiB): 1090 / 15190 / 16280
------------------
     ethr =  3.72E-09,  avg # of iterations =  2.9

     negative rho (up, down):  1.541E-01 1.561E-01

     total cpu time spent up to now is      648.7 secs

     total energy              =    -392.75303368 Ry
     estimated scf accuracy    <       0.00000360 Ry

     total magnetization       =     2.45 Bohr mag/cell
     absolute magnetization    =     2.84 Bohr mag/cell
[tb_dev] Currently allocated     1.28E+00 Mbytes, locked:    0 /  10
[tb_pin] Currently allocated     0.00E+00 Mbytes, locked:    0 /   0

     iteration # 69     ecut=    65.00 Ry     beta= 0.20
     Davidson diagonalization with overlap

---- Real-time Memory Report at c_bands before calling an iterative solver
          1208 MiB given to the printing process from OS
          1012 MiB allocation reported by mallinfo(arena+hblkhd)
         58182 MiB available memory on the node where the printing process lives
     GPU memory used/free/total (MiB): 1090 / 15190 / 16280
------------------
     ethr =  3.72E-09,  avg # of iterations =  3.0

     negative rho (up, down):  1.541E-01 1.561E-01

     total cpu time spent up to now is      657.4 secs

     total energy              =    -392.75303814 Ry
     estimated scf accuracy    <       0.00000208 Ry

     total magnetization       =     2.43 Bohr mag/cell
     absolute magnetization    =     2.82 Bohr mag/cell
[tb_dev] Currently allocated     1.28E+00 Mbytes, locked:    0 /  10
[tb_pin] Currently allocated     0.00E+00 Mbytes, locked:    0 /   0

     iteration # 70     ecut=    65.00 Ry     beta= 0.20
     Davidson diagonalization with overlap

---- Real-time Memory Report at c_bands before calling an iterative solver
          1208 MiB given to the printing process from OS
          1012 MiB allocation reported by mallinfo(arena+hblkhd)
         58182 MiB available memory on the node where the printing process lives
     GPU memory used/free/total (MiB): 1090 / 15190 / 16280
------------------
     ethr =  3.72E-09,  avg # of iterations =  2.4

     negative rho (up, down):  1.542E-01 1.561E-01

     total cpu time spent up to now is      664.9 secs

     total energy              =    -392.75297082 Ry
     estimated scf accuracy    <       0.00000277 Ry

     total magnetization       =     2.44 Bohr mag/cell
     absolute magnetization    =     2.83 Bohr mag/cell
[tb_dev] Currently allocated     1.28E+00 Mbytes, locked:    0 /  10
[tb_pin] Currently allocated     0.00E+00 Mbytes, locked:    0 /   0

     iteration # 71     ecut=    65.00 Ry     beta= 0.20
     Davidson diagonalization with overlap

---- Real-time Memory Report at c_bands before calling an iterative solver
          1208 MiB given to the printing process from OS
          1012 MiB allocation reported by mallinfo(arena+hblkhd)
         58182 MiB available memory on the node where the printing process lives
     GPU memory used/free/total (MiB): 1090 / 15190 / 16280
------------------
     ethr =  3.72E-09,  avg # of iterations =  4.2

     negative rho (up, down):  1.543E-01 1.560E-01

     total cpu time spent up to now is      675.7 secs

     total energy              =    -392.75299012 Ry
     estimated scf accuracy    <       0.00000993 Ry

     total magnetization       =     2.49 Bohr mag/cell
     absolute magnetization    =     2.87 Bohr mag/cell
[tb_dev] Currently allocated     1.28E+00 Mbytes, locked:    0 /  10
[tb_pin] Currently allocated     0.00E+00 Mbytes, locked:    0 /   0

     iteration # 72     ecut=    65.00 Ry     beta= 0.20
     Davidson diagonalization with overlap

---- Real-time Memory Report at c_bands before calling an iterative solver
          1208 MiB given to the printing process from OS
          1012 MiB allocation reported by mallinfo(arena+hblkhd)
         58182 MiB available memory on the node where the printing process lives
     GPU memory used/free/total (MiB): 1090 / 15190 / 16280
------------------
     ethr =  3.72E-09,  avg # of iterations =  3.7

     negative rho (up, down):  1.541E-01 1.561E-01

     total cpu time spent up to now is      685.9 secs

     total energy              =    -392.75282764 Ry
     estimated scf accuracy    <       0.00002008 Ry

     total magnetization       =     2.52 Bohr mag/cell
     absolute magnetization    =     2.90 Bohr mag/cell
[tb_dev] Currently allocated     1.28E+00 Mbytes, locked:    0 /  10
[tb_pin] Currently allocated     0.00E+00 Mbytes, locked:    0 /   0

     iteration # 73     ecut=    65.00 Ry     beta= 0.20
     Davidson diagonalization with overlap

---- Real-time Memory Report at c_bands before calling an iterative solver
          1208 MiB given to the printing process from OS
          1012 MiB allocation reported by mallinfo(arena+hblkhd)
         58183 MiB available memory on the node where the printing process lives
     GPU memory used/free/total (MiB): 1090 / 15190 / 16280
------------------
     ethr =  3.72E-09,  avg # of iterations =  4.9

     negative rho (up, down):  1.541E-01 1.562E-01

     total cpu time spent up to now is      698.5 secs

     total energy              =    -392.75304418 Ry
     estimated scf accuracy    <       0.00000185 Ry

     total magnetization       =     2.41 Bohr mag/cell
     absolute magnetization    =     2.81 Bohr mag/cell
[tb_dev] Currently allocated     1.28E+00 Mbytes, locked:    0 /  10
[tb_pin] Currently allocated     0.00E+00 Mbytes, locked:    0 /   0

     iteration # 74     ecut=    65.00 Ry     beta= 0.20
     Davidson diagonalization with overlap

---- Real-time Memory Report at c_bands before calling an iterative solver
          1208 MiB given to the printing process from OS
          1012 MiB allocation reported by mallinfo(arena+hblkhd)
         58183 MiB available memory on the node where the printing process lives
     GPU memory used/free/total (MiB): 1090 / 15190 / 16280
------------------
     ethr =  3.72E-09,  avg # of iterations =  1.4

     negative rho (up, down):  1.541E-01 1.562E-01

     total cpu time spent up to now is      704.5 secs

     total energy              =    -392.75304030 Ry
     estimated scf accuracy    <       0.00000170 Ry

     total magnetization       =     2.41 Bohr mag/cell
     absolute magnetization    =     2.80 Bohr mag/cell
[tb_dev] Currently allocated     1.28E+00 Mbytes, locked:    0 /  10
[tb_pin] Currently allocated     0.00E+00 Mbytes, locked:    0 /   0

     iteration # 75     ecut=    65.00 Ry     beta= 0.20
     Davidson diagonalization with overlap

---- Real-time Memory Report at c_bands before calling an iterative solver
          1208 MiB given to the printing process from OS
          1012 MiB allocation reported by mallinfo(arena+hblkhd)
         58183 MiB available memory on the node where the printing process lives
     GPU memory used/free/total (MiB): 1090 / 15190 / 16280
------------------
     ethr =  3.72E-09,  avg # of iterations =  3.0

     negative rho (up, down):  1.539E-01 1.563E-01

     total cpu time spent up to now is      713.5 secs

     total energy              =    -392.75287390 Ry
     estimated scf accuracy    <       0.00000140 Ry

     total magnetization       =     2.39 Bohr mag/cell
     absolute magnetization    =     2.78 Bohr mag/cell
[tb_dev] Currently allocated     1.28E+00 Mbytes, locked:    0 /  10
[tb_pin] Currently allocated     0.00E+00 Mbytes, locked:    0 /   0

     iteration # 76     ecut=    65.00 Ry     beta= 0.20
     Davidson diagonalization with overlap

---- Real-time Memory Report at c_bands before calling an iterative solver
          1208 MiB given to the printing process from OS
          1012 MiB allocation reported by mallinfo(arena+hblkhd)
         58183 MiB available memory on the node where the printing process lives
     GPU memory used/free/total (MiB): 1090 / 15190 / 16280
------------------
     ethr =  3.72E-09,  avg # of iterations =  4.9

     negative rho (up, down):  1.542E-01 1.561E-01

     total cpu time spent up to now is      725.7 secs

     total energy              =    -392.75245128 Ry
     estimated scf accuracy    <       0.00000818 Ry

     total magnetization       =     2.29 Bohr mag/cell
     absolute magnetization    =     2.69 Bohr mag/cell
[tb_dev] Currently allocated     1.28E+00 Mbytes, locked:    0 /  10
[tb_pin] Currently allocated     0.00E+00 Mbytes, locked:    0 /   0

     iteration # 77     ecut=    65.00 Ry     beta= 0.20
     Davidson diagonalization with overlap

---- Real-time Memory Report at c_bands before calling an iterative solver
          1208 MiB given to the printing process from OS
          1012 MiB allocation reported by mallinfo(arena+hblkhd)
         58183 MiB available memory on the node where the printing process lives
     GPU memory used/free/total (MiB): 1090 / 15190 / 16280
------------------
     ethr =  3.72E-09,  avg # of iterations =  5.4

     negative rho (up, down):  1.542E-01 1.561E-01

     total cpu time spent up to now is      738.7 secs

     total energy              =    -392.75303487 Ry
     estimated scf accuracy    <       0.00000508 Ry

     total magnetization       =     2.46 Bohr mag/cell
     absolute magnetization    =     2.85 Bohr mag/cell
[tb_dev] Currently allocated     1.28E+00 Mbytes, locked:    0 /  10
[tb_pin] Currently allocated     0.00E+00 Mbytes, locked:    0 /   0

     iteration # 78     ecut=    65.00 Ry     beta= 0.20
     Davidson diagonalization with overlap

---- Real-time Memory Report at c_bands before calling an iterative solver
          1208 MiB given to the printing process from OS
          1012 MiB allocation reported by mallinfo(arena+hblkhd)
         58183 MiB available memory on the node where the printing process lives
     GPU memory used/free/total (MiB): 1090 / 15190 / 16280
------------------
     ethr =  3.72E-09,  avg # of iterations =  1.0

     negative rho (up, down):  1.542E-01 1.561E-01

     total cpu time spent up to now is      744.6 secs

     total energy              =    -392.75300750 Ry
     estimated scf accuracy    <       0.00000503 Ry

     total magnetization       =     2.46 Bohr mag/cell
     absolute magnetization    =     2.85 Bohr mag/cell
[tb_dev] Currently allocated     1.28E+00 Mbytes, locked:    0 /  10
[tb_pin] Currently allocated     0.00E+00 Mbytes, locked:    0 /   0

     iteration # 79     ecut=    65.00 Ry     beta= 0.20
     Davidson diagonalization with overlap

---- Real-time Memory Report at c_bands before calling an iterative solver
          1208 MiB given to the printing process from OS
          1012 MiB allocation reported by mallinfo(arena+hblkhd)
         58183 MiB available memory on the node where the printing process lives
     GPU memory used/free/total (MiB): 1090 / 15190 / 16280
------------------
     ethr =  3.72E-09,  avg # of iterations =  3.5

     negative rho (up, down):  1.543E-01 1.560E-01

     total cpu time spent up to now is      754.4 secs

     total energy              =    -392.75300947 Ry
     estimated scf accuracy    <       0.00001022 Ry

     total magnetization       =     2.49 Bohr mag/cell
     absolute magnetization    =     2.88 Bohr mag/cell
[tb_dev] Currently allocated     1.28E+00 Mbytes, locked:    0 /  10
[tb_pin] Currently allocated     0.00E+00 Mbytes, locked:    0 /   0

     iteration # 80     ecut=    65.00 Ry     beta= 0.20
     Davidson diagonalization with overlap

---- Real-time Memory Report at c_bands before calling an iterative solver
          1208 MiB given to the printing process from OS
          1012 MiB allocation reported by mallinfo(arena+hblkhd)
         58182 MiB available memory on the node where the printing process lives
     GPU memory used/free/total (MiB): 1090 / 15190 / 16280
------------------
     ethr =  3.72E-09,  avg # of iterations =  3.0

     negative rho (up, down):  1.543E-01 1.560E-01

     total cpu time spent up to now is      763.4 secs

     total energy              =    -392.75298395 Ry
     estimated scf accuracy    <       0.00001568 Ry

     total magnetization       =     2.51 Bohr mag/cell
     absolute magnetization    =     2.89 Bohr mag/cell

     End of self-consistent calculation

     convergence NOT achieved after  80 iterations: stopping

     Writing config to output data dir ./out/aiida.save/
 
     init_run     :     10.13s CPU      2.60s WALL (       1 calls)
     electrons    :    810.29s CPU    760.06s WALL (       1 calls)

     Called by init_run:
     wfcinit      :      0.44s CPU      0.44s WALL (       1 calls)
                                        0.44s GPU  (       1 calls)
     potinit      :      0.31s CPU      0.10s WALL (       1 calls)
     hinit0       :      7.12s CPU      1.49s WALL (       1 calls)

     Called by electrons:
     c_bands      :    704.93s CPU    675.20s WALL (      81 calls)
     sum_band     :     65.27s CPU     81.08s WALL (      81 calls)
     v_of_rho     :      8.17s CPU      0.75s WALL (      81 calls)
     v_h          :      1.36s CPU      0.12s WALL (      81 calls)
     v_xc         :      6.79s CPU      0.63s WALL (      81 calls)
     newd         :     21.67s CPU      2.24s WALL (      81 calls)
                                        2.24s GPU  (      81 calls)
     mix_rho      :      7.93s CPU      0.77s WALL (      81 calls)

     Called by c_bands:
     init_us_2    :     63.76s CPU     66.31s WALL (  102060 calls)
     init_us_2:gp :     61.97s CPU     64.60s WALL (  102060 calls)
     cegterg      :    621.80s CPU    588.89s WALL (   51030 calls)

     Called by sum_band:
     sum_band:wei :      0.89s CPU      0.91s WALL (      81 calls)
                                        0.91s GPU  (      81 calls)
     sum_band:loo :     61.32s CPU     76.92s WALL (      81 calls)
                                       76.92s GPU  (      81 calls)
     sum_band:buf :      6.98s CPU      9.09s WALL (   51030 calls)
                                        8.81s GPU  (   51030 calls)
     sum_band:ini :     24.90s CPU     32.10s WALL (   51030 calls)
                                       31.83s GPU  (   51030 calls)
     sum_band:cal :      1.46s CPU      3.23s WALL (   51030 calls)
                                        2.93s GPU  (   51030 calls)
     sum_band:bec :      5.55s CPU      7.40s WALL (   51030 calls)
                                        7.06s GPU  (   51030 calls)
     addusdens    :      2.44s CPU      2.59s WALL (      81 calls)
                                        2.59s GPU  (      81 calls)
     addusd:skk   :      0.01s CPU      0.01s WALL (     162 calls)
                                        0.01s GPU  (     162 calls)

     Called by *egterg:
     cdiaghg      :    289.77s CPU    279.71s WALL (  216810 calls)
                                      278.32s GPU  (  216810 calls)
     cegterg:over :     19.28s CPU     18.79s WALL (  167040 calls)
     cegterg:upda :     35.96s CPU     34.11s WALL (  167040 calls)
     cegterg:last :      9.51s CPU      8.91s WALL (  117259 calls)
     h_psi        :    185.70s CPU    175.33s WALL (  218070 calls)
                                      174.16s GPU  (  218070 calls)
     s_psi        :     15.73s CPU     19.22s WALL (  218070 calls)
                                       17.81s GPU  (  218070 calls)
     g_psi        :      1.26s CPU      3.21s WALL (  167040 calls)
                                        2.18s GPU  (  167040 calls)

     Called by h_psi:
     h_psi:calbec :      7.62s CPU     15.38s WALL (  218070 calls)
                                       14.07s GPU  (  218070 calls)
     vloc_psi     :    136.66s CPU    129.48s WALL (  218070 calls)
                                      128.21s GPU  (  218070 calls)
     add_vuspsi   :     14.48s CPU     17.38s WALL (  218070 calls)
                                       16.11s GPU  (  218070 calls)

     General routines
     calbec       :      6.82s CPU      6.74s WALL (  269100 calls)
     fft          :      2.65s CPU      0.32s WALL (    2025 calls)
                                        0.24s GPU  (    1863 calls)
     ffts         :      0.37s CPU      0.04s WALL (     324 calls)
                                        0.00s GPU  (     162 calls)
     fftw         :     15.91s CPU     55.64s WALL (  750178 calls)
                                       51.60s GPU  (  750178 calls)
     interpolate  :      1.71s CPU      0.16s WALL (     162 calls)
     davcio       :      1.02s CPU      0.47s WALL (    1278 calls)
 
     Parallel routines
 
     PWSCF        :  13m44.22s CPU  12m43.81s WALL

 
   This run was terminated on:  22:10:57  23Oct2023            

=------------------------------------------------------------------------------=
   JOB DONE.
=------------------------------------------------------------------------------=
