
     Program PWSCF v.7.2 starts on 23Oct2023 at 18: 2: 0 

     This program is part of the open-source Quantum ESPRESSO suite
     for quantum simulation of materials; please cite
         "P. Giannozzi et al., J. Phys.:Condens. Matter 21 395502 (2009);
         "P. Giannozzi et al., J. Phys.:Condens. Matter 29 465901 (2017);
         "P. Giannozzi et al., J. Chem. Phys. 152 154105 (2020);
          URL http://www.quantum-espresso.org", 
     in publications or presentations arising from this work. More details at
     http://www.quantum-espresso.org/quote

     Parallel version (MPI & OpenMP), running on      12 processor cores
     Number of MPI processes:                 1
     Threads/MPI process:                    12

     MPI processes distributed on     1 nodes
     60506 MiB available memory on the printing compute node when the environment starts
 
     Reading input from aiida.in

     Current dimensions of program PWSCF are:
     Max number of different atomic species (ntypx) = 10
     Max number of k-points (npk) =  40000
     Max angular momentum in pseudopotentials (lmaxx) =  4
     file Cu.paw.z_11.ld1.psl.v1.0.0-low.upf: wavefunction(s)  4S 3D renormalized
     Message from routine setup:
     using ibrav=0 with symmetry is DISCOURAGED, use correct ibrav instead
 
     Subspace diagonalization in iterative solution of the eigenvalue problem:
     a serial algorithm will be used

 
     G-vector sticks info
     --------------------
     sticks:   dense  smooth     PW     G-vecs:    dense   smooth      PW
     Sum        8373    4177   1181               693373   245061   37237
 
     Using Slab Decomposition
 


     bravais-lattice index     =            0
     lattice parameter (alat)  =      16.4444  a.u.
     unit-cell volume          =    2124.7373 (a.u.)^3
     number of atoms/cell      =            2
     number of atomic types    =            1
     number of electrons       =        22.00
     number of Kohn-Sham states=           15
     kinetic-energy cutoff     =      90.0000  Ry
     charge density cutoff     =     720.0000  Ry
     scf convergence threshold =      4.0E-10
     mixing beta               =       0.2000
     number of iterations used =            8  plain     mixing
     Exchange-correlation= SLA  PW   PSX  PSC
                           (   1   4  10   8   0   0   0)

     GPU acceleration is ACTIVE.


     GPU used by master process:

        Device Number: 0
        Device name: Tesla P100-PCIE-16GB
        Compute capability : 60
        Ratio of single to double precision performance  : 2
        Memory Clock Rate (KHz): 715000
        Memory Bus Width (bits): 4096
        Peak Memory Bandwidth (GB/s): 732.16

     celldm(1)=  16.444418  celldm(2)=   0.000000  celldm(3)=   0.000000
     celldm(4)=   0.000000  celldm(5)=   0.000000  celldm(6)=   0.000000

     crystal axes: (cart. coord. in units of alat)
               a(1) = (   0.959548   0.281544   0.000000 )  
               a(2) = (  -0.959548   0.281544   0.000000 )  
               a(3) = (  -0.030881   0.000000   0.884314 )  

     reciprocal axes: (cart. coord. in units 2 pi/alat)
               b(1) = (  0.521079  1.775921  0.018196 )  
               b(2) = ( -0.521079  1.775921 -0.018196 )  
               b(3) = (  0.000000 -0.000000  1.130820 )  


     PseudoPot. # 1 for Cu read from file:
     ./pseudo/Cu.paw.z_11.ld1.psl.v1.0.0-low.upf
     MD5 check sum: e985f55843d4aeb8486834e0a057895d
     Pseudo is Projector augmented-wave + core cor, Zval = 11.0
     Generated using &quot;atomic&quot; code by A. Dal Corso  v.6.3MaX
     Shape of augmentation charge: PSQ
     Using radial grid of 1199 points,  6 beta functions with: 
                l(1) =   0
                l(2) =   0
                l(3) =   1
                l(4) =   1
                l(5) =   2
                l(6) =   2
     Q(r) pseudized with 0 coefficients 


     atomic species   valence    mass     pseudopotential
        Cu            11.00    63.54600     Cu( 1.00)

     Starting magnetic structure 
     atomic species   magnetization
        Cu           0.100

      4 Sym. Ops., with inversion, found


                                    s                        frac. trans.

      isym =  1     identity                                     

 cryst.   s( 1) = (     1          0          0      )
                  (     0          1          0      )
                  (     0          0          1      )

 cart.    s( 1) = (  1.0000000 -0.0000000 -0.0000000 )
                  ( -0.0000000  1.0000000  0.0000000 )
                  (  0.0000000  0.0000000  1.0000000 )


      isym =  2     180 deg rotation - cart. axis [0,1,0]        

 cryst.   s( 2) = (     0          1          0      )
                  (     1          0          0      )
                  (     0          0         -1      )

 cart.    s( 2) = ( -1.0000000 -0.0000000  0.0000000 )
                  (  0.0000000  1.0000000 -0.0000000 )
                  (  0.0000000  0.0000000 -1.0000000 )


      isym =  3     inversion                                    

 cryst.   s( 3) = (    -1          0          0      )
                  (     0         -1          0      )
                  (     0          0         -1      )

 cart.    s( 3) = ( -1.0000000  0.0000000  0.0000000 )
                  (  0.0000000 -1.0000000 -0.0000000 )
                  (  0.0000000  0.0000000 -1.0000000 )


      isym =  4     inv. 180 deg rotation - cart. axis [0,1,0]   

 cryst.   s( 4) = (     0         -1          0      )
                  (    -1          0          0      )
                  (     0          0          1      )

 cart.    s( 4) = (  1.0000000  0.0000000 -0.0000000 )
                  ( -0.0000000 -1.0000000  0.0000000 )
                  (  0.0000000  0.0000000  1.0000000 )


   Cartesian axes

     site n.     atom                  positions (alat units)
         1           Cu  tau(   1) = (   0.7051696   0.2815441   0.6897648  )
         2           Cu  tau(   2) = (   0.2234978  -0.0000000   0.1945491  )

   Crystallographic axes

     site n.     atom                  positions (cryst. coord.)
         1           Cu  tau(   1) = (  0.8800000  0.1200000  0.7800000  )
         2           Cu  tau(   2) = (  0.1200000 -0.1200000  0.2200000  )

     number of k points=   140  Marzari-Vanderbilt smearing, width (Ry)=  0.0100
                       cart. coord. in units 2pi/alat
        k(    1) = (   0.0000000   0.0000000   0.0000000), wk =   0.0020576
        k(    2) = (   0.0000000   0.0000000   0.1884700), wk =   0.0041152
        k(    3) = (   0.0000000   0.0000000   0.3769401), wk =   0.0041152
        k(    4) = (   0.0000000   0.0000000  -0.5654101), wk =   0.0020576
        k(    5) = (  -0.0578976   0.1973245  -0.0020218), wk =   0.0082305
        k(    6) = (  -0.0578976   0.1973245   0.1864482), wk =   0.0082305
        k(    7) = (  -0.0578976   0.1973245   0.3749182), wk =   0.0082305
        k(    8) = (  -0.0578976   0.1973245  -0.5674319), wk =   0.0082305
        k(    9) = (  -0.0578976   0.1973245  -0.3789619), wk =   0.0082305
        k(   10) = (  -0.0578976   0.1973245  -0.1904919), wk =   0.0082305
        k(   11) = (  -0.1157952   0.3946490  -0.0040437), wk =   0.0082305
        k(   12) = (  -0.1157952   0.3946490   0.1844264), wk =   0.0082305
        k(   13) = (  -0.1157952   0.3946490   0.3728964), wk =   0.0082305
        k(   14) = (  -0.1157952   0.3946490  -0.5694538), wk =   0.0082305
        k(   15) = (  -0.1157952   0.3946490  -0.3809837), wk =   0.0082305
        k(   16) = (  -0.1157952   0.3946490  -0.1925137), wk =   0.0082305
        k(   17) = (  -0.1736928   0.5919736  -0.0060655), wk =   0.0082305
        k(   18) = (  -0.1736928   0.5919736   0.1824045), wk =   0.0082305
        k(   19) = (  -0.1736928   0.5919736   0.3708746), wk =   0.0082305
        k(   20) = (  -0.1736928   0.5919736  -0.5714756), wk =   0.0082305
        k(   21) = (  -0.1736928   0.5919736  -0.3830056), wk =   0.0082305
        k(   22) = (  -0.1736928   0.5919736  -0.1945355), wk =   0.0082305
        k(   23) = (  -0.2315905   0.7892981  -0.0080873), wk =   0.0082305
        k(   24) = (  -0.2315905   0.7892981   0.1803827), wk =   0.0082305
        k(   25) = (  -0.2315905   0.7892981   0.3688527), wk =   0.0082305
        k(   26) = (  -0.2315905   0.7892981  -0.5734974), wk =   0.0082305
        k(   27) = (  -0.2315905   0.7892981  -0.3850274), wk =   0.0082305
        k(   28) = (  -0.2315905   0.7892981  -0.1965573), wk =   0.0082305
        k(   29) = (   0.0000000   0.3946490  -0.0000000), wk =   0.0041152
        k(   30) = (   0.0000000   0.3946490   0.1884700), wk =   0.0082305
        k(   31) = (   0.0000000   0.3946490   0.3769401), wk =   0.0082305
        k(   32) = (   0.0000000   0.3946490  -0.5654101), wk =   0.0041152
        k(   33) = (  -0.0578976   0.5919736  -0.0020218), wk =   0.0082305
        k(   34) = (  -0.0578976   0.5919736   0.1864482), wk =   0.0082305
        k(   35) = (  -0.0578976   0.5919736   0.3749182), wk =   0.0082305
        k(   36) = (  -0.0578976   0.5919736  -0.5674319), wk =   0.0082305
        k(   37) = (  -0.0578976   0.5919736  -0.3789619), wk =   0.0082305
        k(   38) = (  -0.0578976   0.5919736  -0.1904919), wk =   0.0082305
        k(   39) = (  -0.1157952   0.7892981  -0.0040437), wk =   0.0082305
        k(   40) = (  -0.1157952   0.7892981   0.1844264), wk =   0.0082305
        k(   41) = (  -0.1157952   0.7892981   0.3728964), wk =   0.0082305
        k(   42) = (  -0.1157952   0.7892981  -0.5694538), wk =   0.0082305
        k(   43) = (  -0.1157952   0.7892981  -0.3809837), wk =   0.0082305
        k(   44) = (  -0.1157952   0.7892981  -0.1925137), wk =   0.0082305
        k(   45) = (  -0.1736928   0.9866226  -0.0060655), wk =   0.0082305
        k(   46) = (  -0.1736928   0.9866226   0.1824045), wk =   0.0082305
        k(   47) = (  -0.1736928   0.9866226   0.3708746), wk =   0.0082305
        k(   48) = (  -0.1736928   0.9866226  -0.5714756), wk =   0.0082305
        k(   49) = (  -0.1736928   0.9866226  -0.3830056), wk =   0.0082305
        k(   50) = (  -0.1736928   0.9866226  -0.1945355), wk =   0.0082305
        k(   51) = (   0.2894881  -0.5919736   0.0101091), wk =   0.0082305
        k(   52) = (   0.2894881  -0.5919736   0.1985792), wk =   0.0082305
        k(   53) = (   0.2894881  -0.5919736   0.3870492), wk =   0.0082305
        k(   54) = (   0.2894881  -0.5919736  -0.5553010), wk =   0.0082305
        k(   55) = (   0.2894881  -0.5919736  -0.3668309), wk =   0.0082305
        k(   56) = (   0.2894881  -0.5919736  -0.1783609), wk =   0.0082305
        k(   57) = (   0.2315905  -0.3946490   0.0080873), wk =   0.0082305
        k(   58) = (   0.2315905  -0.3946490   0.1965573), wk =   0.0082305
        k(   59) = (   0.2315905  -0.3946490   0.3850274), wk =   0.0082305
        k(   60) = (   0.2315905  -0.3946490  -0.5573228), wk =   0.0082305
        k(   61) = (   0.2315905  -0.3946490  -0.3688527), wk =   0.0082305
        k(   62) = (   0.2315905  -0.3946490  -0.1803827), wk =   0.0082305
        k(   63) = (   0.1736928  -0.1973245   0.0060655), wk =   0.0082305
        k(   64) = (   0.1736928  -0.1973245   0.1945355), wk =   0.0082305
        k(   65) = (   0.1736928  -0.1973245   0.3830056), wk =   0.0082305
        k(   66) = (   0.1736928  -0.1973245  -0.5593446), wk =   0.0082305
        k(   67) = (   0.1736928  -0.1973245  -0.3708746), wk =   0.0082305
        k(   68) = (   0.1736928  -0.1973245  -0.1824045), wk =   0.0082305
        k(   69) = (   0.1157952  -0.0000000   0.0040437), wk =   0.0041152
        k(   70) = (   0.1157952  -0.0000000   0.1925137), wk =   0.0041152
        k(   71) = (   0.1157952  -0.0000000   0.3809837), wk =   0.0041152
        k(   72) = (   0.1157952  -0.0000000  -0.5613664), wk =   0.0041152
        k(   73) = (   0.1157952  -0.0000000  -0.3728964), wk =   0.0041152
        k(   74) = (   0.1157952  -0.0000000  -0.1844264), wk =   0.0041152
        k(   75) = (   0.0000000   0.7892981  -0.0000000), wk =   0.0041152
        k(   76) = (   0.0000000   0.7892981   0.1884700), wk =   0.0082305
        k(   77) = (   0.0000000   0.7892981   0.3769401), wk =   0.0082305
        k(   78) = (   0.0000000   0.7892981  -0.5654101), wk =   0.0041152
        k(   79) = (  -0.0578976   0.9866226  -0.0020218), wk =   0.0082305
        k(   80) = (  -0.0578976   0.9866226   0.1864482), wk =   0.0082305
        k(   81) = (  -0.0578976   0.9866226   0.3749182), wk =   0.0082305
        k(   82) = (  -0.0578976   0.9866226  -0.5674319), wk =   0.0082305
        k(   83) = (  -0.0578976   0.9866226  -0.3789619), wk =   0.0082305
        k(   84) = (  -0.0578976   0.9866226  -0.1904919), wk =   0.0082305
        k(   85) = (  -0.1157952   1.1839471  -0.0040437), wk =   0.0082305
        k(   86) = (  -0.1157952   1.1839471   0.1844264), wk =   0.0082305
        k(   87) = (  -0.1157952   1.1839471   0.3728964), wk =   0.0082305
        k(   88) = (  -0.1157952   1.1839471  -0.5694538), wk =   0.0082305
        k(   89) = (  -0.1157952   1.1839471  -0.3809837), wk =   0.0082305
        k(   90) = (  -0.1157952   1.1839471  -0.1925137), wk =   0.0082305
        k(   91) = (   0.3473857  -0.3946490   0.0121310), wk =   0.0082305
        k(   92) = (   0.3473857  -0.3946490   0.2006010), wk =   0.0082305
        k(   93) = (   0.3473857  -0.3946490   0.3890710), wk =   0.0082305
        k(   94) = (   0.3473857  -0.3946490  -0.5532791), wk =   0.0082305
        k(   95) = (   0.3473857  -0.3946490  -0.3648091), wk =   0.0082305
        k(   96) = (   0.3473857  -0.3946490  -0.1763391), wk =   0.0082305
        k(   97) = (   0.2894881  -0.1973245   0.0101091), wk =   0.0082305
        k(   98) = (   0.2894881  -0.1973245   0.1985792), wk =   0.0082305
        k(   99) = (   0.2894881  -0.1973245   0.3870492), wk =   0.0082305
        k(  100) = (   0.2894881  -0.1973245  -0.5553010), wk =   0.0082305
        k(  101) = (   0.2894881  -0.1973245  -0.3668309), wk =   0.0082305
        k(  102) = (   0.2894881  -0.1973245  -0.1783609), wk =   0.0082305
        k(  103) = (   0.2315905   0.0000000   0.0080873), wk =   0.0041152
        k(  104) = (   0.2315905   0.0000000   0.1965573), wk =   0.0041152
        k(  105) = (   0.2315905   0.0000000   0.3850274), wk =   0.0041152
        k(  106) = (   0.2315905   0.0000000  -0.5573228), wk =   0.0041152
        k(  107) = (   0.2315905   0.0000000  -0.3688527), wk =   0.0041152
        k(  108) = (   0.2315905   0.0000000  -0.1803827), wk =   0.0041152
        k(  109) = (   0.0000000   1.1839471  -0.0000000), wk =   0.0041152
        k(  110) = (   0.0000000   1.1839471   0.1884700), wk =   0.0082305
        k(  111) = (   0.0000000   1.1839471   0.3769401), wk =   0.0082305
        k(  112) = (   0.0000000   1.1839471  -0.5654101), wk =   0.0041152
        k(  113) = (  -0.0578976   1.3812716  -0.0020218), wk =   0.0082305
        k(  114) = (  -0.0578976   1.3812716   0.1864482), wk =   0.0082305
        k(  115) = (  -0.0578976   1.3812716   0.3749182), wk =   0.0082305
        k(  116) = (  -0.0578976   1.3812716  -0.5674319), wk =   0.0082305
        k(  117) = (  -0.0578976   1.3812716  -0.3789619), wk =   0.0082305
        k(  118) = (  -0.0578976   1.3812716  -0.1904919), wk =   0.0082305
        k(  119) = (   0.4052833  -0.1973245   0.0141528), wk =   0.0082305
        k(  120) = (   0.4052833  -0.1973245   0.2026228), wk =   0.0082305
        k(  121) = (   0.4052833  -0.1973245   0.3910929), wk =   0.0082305
        k(  122) = (   0.4052833  -0.1973245  -0.5512573), wk =   0.0082305
        k(  123) = (   0.4052833  -0.1973245  -0.3627873), wk =   0.0082305
        k(  124) = (   0.4052833  -0.1973245  -0.1743172), wk =   0.0082305
        k(  125) = (   0.3473857  -0.0000000   0.0121310), wk =   0.0041152
        k(  126) = (   0.3473857  -0.0000000   0.2006010), wk =   0.0041152
        k(  127) = (   0.3473857  -0.0000000   0.3890710), wk =   0.0041152
        k(  128) = (   0.3473857  -0.0000000  -0.5532791), wk =   0.0041152
        k(  129) = (   0.3473857  -0.0000000  -0.3648091), wk =   0.0041152
        k(  130) = (   0.3473857  -0.0000000  -0.1763391), wk =   0.0041152
        k(  131) = (   0.0000000   1.5785961  -0.0000000), wk =   0.0041152
        k(  132) = (   0.0000000   1.5785961   0.1884700), wk =   0.0082305
        k(  133) = (   0.0000000   1.5785961   0.3769401), wk =   0.0082305
        k(  134) = (   0.0000000   1.5785961  -0.5654101), wk =   0.0041152
        k(  135) = (   0.4631809   0.0000000   0.0161746), wk =   0.0041152
        k(  136) = (   0.4631809   0.0000000   0.2046447), wk =   0.0041152
        k(  137) = (   0.4631809   0.0000000   0.3931147), wk =   0.0041152
        k(  138) = (   0.4631809   0.0000000  -0.5492355), wk =   0.0041152
        k(  139) = (   0.4631809   0.0000000  -0.3607654), wk =   0.0041152
        k(  140) = (   0.4631809   0.0000000  -0.1722954), wk =   0.0041152

                       cryst. coord.
        k(    1) = (   0.0000000   0.0000000   0.0000000), wk =   0.0020576
        k(    2) = (   0.0000000   0.0000000   0.1666667), wk =   0.0041152
        k(    3) = (   0.0000000   0.0000000   0.3333333), wk =   0.0041152
        k(    4) = (   0.0000000   0.0000000  -0.5000000), wk =   0.0020576
        k(    5) = (  -0.0000000   0.1111111   0.0000000), wk =   0.0082305
        k(    6) = (  -0.0000000   0.1111111   0.1666667), wk =   0.0082305
        k(    7) = (  -0.0000000   0.1111111   0.3333333), wk =   0.0082305
        k(    8) = (  -0.0000000   0.1111111  -0.5000000), wk =   0.0082305
        k(    9) = (  -0.0000000   0.1111111  -0.3333333), wk =   0.0082305
        k(   10) = (  -0.0000000   0.1111111  -0.1666667), wk =   0.0082305
        k(   11) = (  -0.0000000   0.2222222   0.0000000), wk =   0.0082305
        k(   12) = (  -0.0000000   0.2222222   0.1666667), wk =   0.0082305
        k(   13) = (  -0.0000000   0.2222222   0.3333333), wk =   0.0082305
        k(   14) = (  -0.0000000   0.2222222  -0.5000000), wk =   0.0082305
        k(   15) = (  -0.0000000   0.2222222  -0.3333333), wk =   0.0082305
        k(   16) = (  -0.0000000   0.2222222  -0.1666667), wk =   0.0082305
        k(   17) = (   0.0000000   0.3333333   0.0000000), wk =   0.0082305
        k(   18) = (   0.0000000   0.3333333   0.1666667), wk =   0.0082305
        k(   19) = (   0.0000000   0.3333333   0.3333333), wk =   0.0082305
        k(   20) = (   0.0000000   0.3333333  -0.5000000), wk =   0.0082305
        k(   21) = (   0.0000000   0.3333333  -0.3333333), wk =   0.0082305
        k(   22) = (   0.0000000   0.3333333  -0.1666667), wk =   0.0082305
        k(   23) = (  -0.0000000   0.4444444   0.0000000), wk =   0.0082305
        k(   24) = (  -0.0000000   0.4444444   0.1666667), wk =   0.0082305
        k(   25) = (  -0.0000000   0.4444444   0.3333333), wk =   0.0082305
        k(   26) = (  -0.0000000   0.4444444  -0.5000000), wk =   0.0082305
        k(   27) = (  -0.0000000   0.4444444  -0.3333333), wk =   0.0082305
        k(   28) = (  -0.0000000   0.4444444  -0.1666667), wk =   0.0082305
        k(   29) = (   0.1111111   0.1111111  -0.0000000), wk =   0.0041152
        k(   30) = (   0.1111111   0.1111111   0.1666667), wk =   0.0082305
        k(   31) = (   0.1111111   0.1111111   0.3333333), wk =   0.0082305
        k(   32) = (   0.1111111   0.1111111  -0.5000000), wk =   0.0041152
        k(   33) = (   0.1111111   0.2222222   0.0000000), wk =   0.0082305
        k(   34) = (   0.1111111   0.2222222   0.1666667), wk =   0.0082305
        k(   35) = (   0.1111111   0.2222222   0.3333333), wk =   0.0082305
        k(   36) = (   0.1111111   0.2222222  -0.5000000), wk =   0.0082305
        k(   37) = (   0.1111111   0.2222222  -0.3333333), wk =   0.0082305
        k(   38) = (   0.1111111   0.2222222  -0.1666667), wk =   0.0082305
        k(   39) = (   0.1111111   0.3333333   0.0000000), wk =   0.0082305
        k(   40) = (   0.1111111   0.3333333   0.1666667), wk =   0.0082305
        k(   41) = (   0.1111111   0.3333333   0.3333333), wk =   0.0082305
        k(   42) = (   0.1111111   0.3333333  -0.5000000), wk =   0.0082305
        k(   43) = (   0.1111111   0.3333333  -0.3333333), wk =   0.0082305
        k(   44) = (   0.1111111   0.3333333  -0.1666667), wk =   0.0082305
        k(   45) = (   0.1111111   0.4444444   0.0000000), wk =   0.0082305
        k(   46) = (   0.1111111   0.4444444   0.1666667), wk =   0.0082305
        k(   47) = (   0.1111111   0.4444444   0.3333333), wk =   0.0082305
        k(   48) = (   0.1111111   0.4444444  -0.5000000), wk =   0.0082305
        k(   49) = (   0.1111111   0.4444444  -0.3333333), wk =   0.0082305
        k(   50) = (   0.1111111   0.4444444  -0.1666667), wk =   0.0082305
        k(   51) = (   0.1111111  -0.4444444  -0.0000000), wk =   0.0082305
        k(   52) = (   0.1111111  -0.4444444   0.1666667), wk =   0.0082305
        k(   53) = (   0.1111111  -0.4444444   0.3333333), wk =   0.0082305
        k(   54) = (   0.1111111  -0.4444444  -0.5000000), wk =   0.0082305
        k(   55) = (   0.1111111  -0.4444444  -0.3333333), wk =   0.0082305
        k(   56) = (   0.1111111  -0.4444444  -0.1666667), wk =   0.0082305
        k(   57) = (   0.1111111  -0.3333333  -0.0000000), wk =   0.0082305
        k(   58) = (   0.1111111  -0.3333333   0.1666667), wk =   0.0082305
        k(   59) = (   0.1111111  -0.3333333   0.3333333), wk =   0.0082305
        k(   60) = (   0.1111111  -0.3333333  -0.5000000), wk =   0.0082305
        k(   61) = (   0.1111111  -0.3333333  -0.3333333), wk =   0.0082305
        k(   62) = (   0.1111111  -0.3333333  -0.1666667), wk =   0.0082305
        k(   63) = (   0.1111111  -0.2222222  -0.0000000), wk =   0.0082305
        k(   64) = (   0.1111111  -0.2222222   0.1666667), wk =   0.0082305
        k(   65) = (   0.1111111  -0.2222222   0.3333333), wk =   0.0082305
        k(   66) = (   0.1111111  -0.2222222  -0.5000000), wk =   0.0082305
        k(   67) = (   0.1111111  -0.2222222  -0.3333333), wk =   0.0082305
        k(   68) = (   0.1111111  -0.2222222  -0.1666667), wk =   0.0082305
        k(   69) = (   0.1111111  -0.1111111  -0.0000000), wk =   0.0041152
        k(   70) = (   0.1111111  -0.1111111   0.1666667), wk =   0.0041152
        k(   71) = (   0.1111111  -0.1111111   0.3333333), wk =   0.0041152
        k(   72) = (   0.1111111  -0.1111111  -0.5000000), wk =   0.0041152
        k(   73) = (   0.1111111  -0.1111111  -0.3333333), wk =   0.0041152
        k(   74) = (   0.1111111  -0.1111111  -0.1666667), wk =   0.0041152
        k(   75) = (   0.2222222   0.2222222  -0.0000000), wk =   0.0041152
        k(   76) = (   0.2222222   0.2222222   0.1666667), wk =   0.0082305
        k(   77) = (   0.2222222   0.2222222   0.3333333), wk =   0.0082305
        k(   78) = (   0.2222222   0.2222222  -0.5000000), wk =   0.0041152
        k(   79) = (   0.2222222   0.3333333  -0.0000000), wk =   0.0082305
        k(   80) = (   0.2222222   0.3333333   0.1666667), wk =   0.0082305
        k(   81) = (   0.2222222   0.3333333   0.3333333), wk =   0.0082305
        k(   82) = (   0.2222222   0.3333333  -0.5000000), wk =   0.0082305
        k(   83) = (   0.2222222   0.3333333  -0.3333333), wk =   0.0082305
        k(   84) = (   0.2222222   0.3333333  -0.1666667), wk =   0.0082305
        k(   85) = (   0.2222222   0.4444444   0.0000000), wk =   0.0082305
        k(   86) = (   0.2222222   0.4444444   0.1666667), wk =   0.0082305
        k(   87) = (   0.2222222   0.4444444   0.3333333), wk =   0.0082305
        k(   88) = (   0.2222222   0.4444444  -0.5000000), wk =   0.0082305
        k(   89) = (   0.2222222   0.4444444  -0.3333333), wk =   0.0082305
        k(   90) = (   0.2222222   0.4444444  -0.1666667), wk =   0.0082305
        k(   91) = (   0.2222222  -0.4444444  -0.0000000), wk =   0.0082305
        k(   92) = (   0.2222222  -0.4444444   0.1666667), wk =   0.0082305
        k(   93) = (   0.2222222  -0.4444444   0.3333333), wk =   0.0082305
        k(   94) = (   0.2222222  -0.4444444  -0.5000000), wk =   0.0082305
        k(   95) = (   0.2222222  -0.4444444  -0.3333333), wk =   0.0082305
        k(   96) = (   0.2222222  -0.4444444  -0.1666667), wk =   0.0082305
        k(   97) = (   0.2222222  -0.3333333  -0.0000000), wk =   0.0082305
        k(   98) = (   0.2222222  -0.3333333   0.1666667), wk =   0.0082305
        k(   99) = (   0.2222222  -0.3333333   0.3333333), wk =   0.0082305
        k(  100) = (   0.2222222  -0.3333333  -0.5000000), wk =   0.0082305
        k(  101) = (   0.2222222  -0.3333333  -0.3333333), wk =   0.0082305
        k(  102) = (   0.2222222  -0.3333333  -0.1666667), wk =   0.0082305
        k(  103) = (   0.2222222  -0.2222222  -0.0000000), wk =   0.0041152
        k(  104) = (   0.2222222  -0.2222222   0.1666667), wk =   0.0041152
        k(  105) = (   0.2222222  -0.2222222   0.3333333), wk =   0.0041152
        k(  106) = (   0.2222222  -0.2222222  -0.5000000), wk =   0.0041152
        k(  107) = (   0.2222222  -0.2222222  -0.3333333), wk =   0.0041152
        k(  108) = (   0.2222222  -0.2222222  -0.1666667), wk =   0.0041152
        k(  109) = (   0.3333333   0.3333333  -0.0000000), wk =   0.0041152
        k(  110) = (   0.3333333   0.3333333   0.1666667), wk =   0.0082305
        k(  111) = (   0.3333333   0.3333333   0.3333333), wk =   0.0082305
        k(  112) = (   0.3333333   0.3333333  -0.5000000), wk =   0.0041152
        k(  113) = (   0.3333333   0.4444444   0.0000000), wk =   0.0082305
        k(  114) = (   0.3333333   0.4444444   0.1666667), wk =   0.0082305
        k(  115) = (   0.3333333   0.4444444   0.3333333), wk =   0.0082305
        k(  116) = (   0.3333333   0.4444444  -0.5000000), wk =   0.0082305
        k(  117) = (   0.3333333   0.4444444  -0.3333333), wk =   0.0082305
        k(  118) = (   0.3333333   0.4444444  -0.1666667), wk =   0.0082305
        k(  119) = (   0.3333333  -0.4444444  -0.0000000), wk =   0.0082305
        k(  120) = (   0.3333333  -0.4444444   0.1666667), wk =   0.0082305
        k(  121) = (   0.3333333  -0.4444444   0.3333333), wk =   0.0082305
        k(  122) = (   0.3333333  -0.4444444  -0.5000000), wk =   0.0082305
        k(  123) = (   0.3333333  -0.4444444  -0.3333333), wk =   0.0082305
        k(  124) = (   0.3333333  -0.4444444  -0.1666667), wk =   0.0082305
        k(  125) = (   0.3333333  -0.3333333  -0.0000000), wk =   0.0041152
        k(  126) = (   0.3333333  -0.3333333   0.1666667), wk =   0.0041152
        k(  127) = (   0.3333333  -0.3333333   0.3333333), wk =   0.0041152
        k(  128) = (   0.3333333  -0.3333333  -0.5000000), wk =   0.0041152
        k(  129) = (   0.3333333  -0.3333333  -0.3333333), wk =   0.0041152
        k(  130) = (   0.3333333  -0.3333333  -0.1666667), wk =   0.0041152
        k(  131) = (   0.4444444   0.4444444  -0.0000000), wk =   0.0041152
        k(  132) = (   0.4444444   0.4444444   0.1666667), wk =   0.0082305
        k(  133) = (   0.4444444   0.4444444   0.3333333), wk =   0.0082305
        k(  134) = (   0.4444444   0.4444444  -0.5000000), wk =   0.0041152
        k(  135) = (   0.4444444  -0.4444444  -0.0000000), wk =   0.0041152
        k(  136) = (   0.4444444  -0.4444444   0.1666667), wk =   0.0041152
        k(  137) = (   0.4444444  -0.4444444   0.3333333), wk =   0.0041152
        k(  138) = (   0.4444444  -0.4444444  -0.5000000), wk =   0.0041152
        k(  139) = (   0.4444444  -0.4444444  -0.3333333), wk =   0.0041152
        k(  140) = (   0.4444444  -0.4444444  -0.1666667), wk =   0.0041152

     Dense  grid:   693373 G-vectors     FFT dimensions: ( 144, 144, 125)

     Smooth grid:   245061 G-vectors     FFT dimensions: ( 100, 100,  90)

     Dynamical RAM for                 wfc:       7.01 MB

     Dynamical RAM for     wfc (w. buffer):    1970.31 MB

     Dynamical RAM for           str. fact:      10.58 MB

     Dynamical RAM for           local pot:       0.00 MB

     Dynamical RAM for          nlocal pot:      16.83 MB

     Dynamical RAM for                qrad:       2.15 MB

     Dynamical RAM for          rho,v,vnew:     182.13 MB

     Dynamical RAM for               rhoin:      60.71 MB

     Dynamical RAM for            rho*nmix:     338.56 MB

     Dynamical RAM for           G-vectors:      41.54 MB

     Dynamical RAM for          h,s,v(r/c):       0.04 MB

     Dynamical RAM for          <psi|beta>:       0.01 MB

     Dynamical RAM for                 psi:      14.02 MB

     Dynamical RAM for                hpsi:      14.02 MB

     Dynamical RAM for                spsi:      14.02 MB

     Dynamical RAM for      wfcinit/wfcrot:      14.03 MB

     Dynamical RAM for           addusdens:    1999.63 MB

     Dynamical RAM for          addusforce:    2020.80 MB

     Dynamical RAM for         addusstress:    2142.46 MB

     Estimated static dynamical RAM per process >       2.37 GB

     Estimated max dynamical RAM per process >       4.79 GB

     Atomic positions and unit cell read from directory:
     ./out/aiida.save/
 
     Generating pointlists ...
     new r_m :   0.2323 (alat units)  3.8196 (a.u.) for type    1

     The initial density is read from file :
     ./out/aiida.save/charge-density

     Starting wfcs from file
     Checking if some PAW data can be deallocated... 

     total cpu time spent up to now is        5.9 secs

     per-process dynamical memory:   876.5 Mb

     Self-consistent Calculation
[tb_dev] Currently allocated     1.53E-05 Mbytes, locked:    0 /   2
[tb_pin] Currently allocated     0.00E+00 Mbytes, locked:    0 /   0

     iteration #  1     ecut=    90.00 Ry     beta= 0.20
     Davidson diagonalization with overlap

---- Real-time Memory Report at c_bands before calling an iterative solver
          1155 MiB given to the printing process from OS
           914 MiB allocation reported by mallinfo(arena+hblkhd)
         58615 MiB available memory on the node where the printing process lives
     GPU memory used/free/total (MiB): 2120 / 14160 / 16280
------------------
     ethr =  1.00E-05,  avg # of iterations =  2.0
     Minimization algorithm failed to find Fermi energy: reverting to bisection
     Possible cause: smearing is larger than the electronic band-gap.

     Threshold (ethr) on eigenvalues was too large:
     Diagonalizing with lowered threshold

     Davidson diagonalization with overlap

---- Real-time Memory Report at c_bands before calling an iterative solver
          3489 MiB given to the printing process from OS
          -900 MiB allocation reported by mallinfo(arena+hblkhd)
         53707 MiB available memory on the node where the printing process lives
     GPU memory used/free/total (MiB): 5716 / 10564 / 16280
------------------
     ethr =  1.68E-08,  avg # of iterations =  1.0
     Minimization algorithm failed to find Fermi energy: reverting to bisection
     Possible cause: smearing is larger than the electronic band-gap.

     total cpu time spent up to now is       32.3 secs

     total energy              =    -420.23605021 Ry
     estimated scf accuracy    <       0.00000370 Ry

     total magnetization       =     2.02 Bohr mag/cell
     absolute magnetization    =     2.07 Bohr mag/cell
[tb_dev] Currently allocated     2.97E+01 Mbytes, locked:    0 /  12
[tb_pin] Currently allocated     0.00E+00 Mbytes, locked:    0 /   0

     iteration #  2     ecut=    90.00 Ry     beta= 0.20
     Davidson diagonalization with overlap

---- Real-time Memory Report at c_bands before calling an iterative solver
          3739 MiB given to the printing process from OS
          -763 MiB allocation reported by mallinfo(arena+hblkhd)
         53585 MiB available memory on the node where the printing process lives
     GPU memory used/free/total (MiB): 5736 / 10544 / 16280
------------------
     ethr =  1.68E-08,  avg # of iterations =  1.0
     Minimization algorithm failed to find Fermi energy: reverting to bisection
     Possible cause: smearing is larger than the electronic band-gap.

     total cpu time spent up to now is       43.7 secs

     total energy              =    -420.23605048 Ry
     estimated scf accuracy    <       0.00000121 Ry

     total magnetization       =     2.01 Bohr mag/cell
     absolute magnetization    =     2.06 Bohr mag/cell
[tb_dev] Currently allocated     2.97E+01 Mbytes, locked:    0 /  12
[tb_pin] Currently allocated     0.00E+00 Mbytes, locked:    0 /   0

     iteration #  3     ecut=    90.00 Ry     beta= 0.20
     Davidson diagonalization with overlap

---- Real-time Memory Report at c_bands before calling an iterative solver
          3888 MiB given to the printing process from OS
          -745 MiB allocation reported by mallinfo(arena+hblkhd)
         53566 MiB available memory on the node where the printing process lives
     GPU memory used/free/total (MiB): 5736 / 10544 / 16280
------------------
     ethr =  5.51E-09,  avg # of iterations =  1.0
     Minimization algorithm failed to find Fermi energy: reverting to bisection
     Possible cause: smearing is larger than the electronic band-gap.

     total cpu time spent up to now is       54.7 secs

     total energy              =    -420.23605057 Ry
     estimated scf accuracy    <       0.00000125 Ry

     total magnetization       =     2.01 Bohr mag/cell
     absolute magnetization    =     2.06 Bohr mag/cell
[tb_dev] Currently allocated     2.97E+01 Mbytes, locked:    0 /  12
[tb_pin] Currently allocated     0.00E+00 Mbytes, locked:    0 /   0

     iteration #  4     ecut=    90.00 Ry     beta= 0.20
     Davidson diagonalization with overlap

---- Real-time Memory Report at c_bands before calling an iterative solver
          4033 MiB given to the printing process from OS
          -726 MiB allocation reported by mallinfo(arena+hblkhd)
         53548 MiB available memory on the node where the printing process lives
     GPU memory used/free/total (MiB): 5736 / 10544 / 16280
------------------
     ethr =  5.51E-09,  avg # of iterations =  1.0
     Minimization algorithm failed to find Fermi energy: reverting to bisection
     Possible cause: smearing is larger than the electronic band-gap.

     total cpu time spent up to now is       65.9 secs

     total energy              =    -420.23605027 Ry
     estimated scf accuracy    <       0.00000122 Ry

     total magnetization       =     2.01 Bohr mag/cell
     absolute magnetization    =     2.06 Bohr mag/cell
[tb_dev] Currently allocated     2.97E+01 Mbytes, locked:    0 /  12
[tb_pin] Currently allocated     0.00E+00 Mbytes, locked:    0 /   0

     iteration #  5     ecut=    90.00 Ry     beta= 0.20
     Davidson diagonalization with overlap

---- Real-time Memory Report at c_bands before calling an iterative solver
          4154 MiB given to the printing process from OS
          -700 MiB allocation reported by mallinfo(arena+hblkhd)
         53521 MiB available memory on the node where the printing process lives
     GPU memory used/free/total (MiB): 5736 / 10544 / 16280
------------------
     ethr =  5.51E-09,  avg # of iterations =  1.0
     Minimization algorithm failed to find Fermi energy: reverting to bisection
     Possible cause: smearing is larger than the electronic band-gap.

     total cpu time spent up to now is       77.0 secs

     total energy              =    -420.23604878 Ry
     estimated scf accuracy    <       0.00000095 Ry

     total magnetization       =     2.01 Bohr mag/cell
     absolute magnetization    =     2.06 Bohr mag/cell
[tb_dev] Currently allocated     2.97E+01 Mbytes, locked:    0 /  12
[tb_pin] Currently allocated     0.00E+00 Mbytes, locked:    0 /   0

     iteration #  6     ecut=    90.00 Ry     beta= 0.20
     Davidson diagonalization with overlap

---- Real-time Memory Report at c_bands before calling an iterative solver
          4222 MiB given to the printing process from OS
          -674 MiB allocation reported by mallinfo(arena+hblkhd)
         53494 MiB available memory on the node where the printing process lives
     GPU memory used/free/total (MiB): 5736 / 10544 / 16280
------------------
     ethr =  4.33E-09,  avg # of iterations =  1.5
     Minimization algorithm failed to find Fermi energy: reverting to bisection
     Possible cause: smearing is larger than the electronic band-gap.

     total cpu time spent up to now is       88.9 secs

     total energy              =    -420.23604878 Ry
     estimated scf accuracy    <       0.00000055 Ry

     total magnetization       =     2.01 Bohr mag/cell
     absolute magnetization    =     2.06 Bohr mag/cell
[tb_dev] Currently allocated     2.97E+01 Mbytes, locked:    0 /  12
[tb_pin] Currently allocated     0.00E+00 Mbytes, locked:    0 /   0

     iteration #  7     ecut=    90.00 Ry     beta= 0.20
     Davidson diagonalization with overlap

---- Real-time Memory Report at c_bands before calling an iterative solver
          4281 MiB given to the printing process from OS
          -655 MiB allocation reported by mallinfo(arena+hblkhd)
         53472 MiB available memory on the node where the printing process lives
     GPU memory used/free/total (MiB): 5764 / 10516 / 16280
------------------
     ethr =  2.51E-09,  avg # of iterations =  1.0
     Minimization algorithm failed to find Fermi energy: reverting to bisection
     Possible cause: smearing is larger than the electronic band-gap.

     total cpu time spent up to now is      100.3 secs

     total energy              =    -420.23604644 Ry
     estimated scf accuracy    <       0.00000048 Ry

     total magnetization       =     2.01 Bohr mag/cell
     absolute magnetization    =     2.06 Bohr mag/cell
[tb_dev] Currently allocated     2.97E+01 Mbytes, locked:    0 /  12
[tb_pin] Currently allocated     0.00E+00 Mbytes, locked:    0 /   0

     iteration #  8     ecut=    90.00 Ry     beta= 0.20
     Davidson diagonalization with overlap

---- Real-time Memory Report at c_bands before calling an iterative solver
          4348 MiB given to the printing process from OS
          -629 MiB allocation reported by mallinfo(arena+hblkhd)
         53448 MiB available memory on the node where the printing process lives
     GPU memory used/free/total (MiB): 5764 / 10516 / 16280
------------------
     ethr =  2.18E-09,  avg # of iterations =  2.7
     Minimization algorithm failed to find Fermi energy: reverting to bisection
     Possible cause: smearing is larger than the electronic band-gap.

     total cpu time spent up to now is      114.2 secs

     total energy              =    -420.23604637 Ry
     estimated scf accuracy    <       0.00000039 Ry

     total magnetization       =     2.01 Bohr mag/cell
     absolute magnetization    =     2.06 Bohr mag/cell
[tb_dev] Currently allocated     2.97E+01 Mbytes, locked:    0 /  12
[tb_pin] Currently allocated     0.00E+00 Mbytes, locked:    0 /   0

     iteration #  9     ecut=    90.00 Ry     beta= 0.20
     Davidson diagonalization with overlap

---- Real-time Memory Report at c_bands before calling an iterative solver
          4407 MiB given to the printing process from OS
          -610 MiB allocation reported by mallinfo(arena+hblkhd)
         53428 MiB available memory on the node where the printing process lives
     GPU memory used/free/total (MiB): 5930 / 10350 / 16280
------------------
     ethr =  1.77E-09,  avg # of iterations =  1.6
     Minimization algorithm failed to find Fermi energy: reverting to bisection
     Possible cause: smearing is larger than the electronic band-gap.

     total cpu time spent up to now is      126.6 secs

     total energy              =    -420.23604632 Ry
     estimated scf accuracy    <       0.00000038 Ry

     total magnetization       =     2.01 Bohr mag/cell
     absolute magnetization    =     2.06 Bohr mag/cell
[tb_dev] Currently allocated     2.97E+01 Mbytes, locked:    0 /  12
[tb_pin] Currently allocated     0.00E+00 Mbytes, locked:    0 /   0

     iteration # 10     ecut=    90.00 Ry     beta= 0.20
     Davidson diagonalization with overlap

---- Real-time Memory Report at c_bands before calling an iterative solver
          4455 MiB given to the printing process from OS
          -592 MiB allocation reported by mallinfo(arena+hblkhd)
         53411 MiB available memory on the node where the printing process lives
     GPU memory used/free/total (MiB): 5930 / 10350 / 16280
------------------
     ethr =  1.71E-09,  avg # of iterations =  1.1
     Minimization algorithm failed to find Fermi energy: reverting to bisection
     Possible cause: smearing is larger than the electronic band-gap.

     total cpu time spent up to now is      137.7 secs

     total energy              =    -420.23604641 Ry
     estimated scf accuracy    <       0.00000037 Ry

     total magnetization       =     2.01 Bohr mag/cell
     absolute magnetization    =     2.06 Bohr mag/cell
[tb_dev] Currently allocated     2.97E+01 Mbytes, locked:    0 /  12
[tb_pin] Currently allocated     0.00E+00 Mbytes, locked:    0 /   0

     iteration # 11     ecut=    90.00 Ry     beta= 0.20
     Davidson diagonalization with overlap

---- Real-time Memory Report at c_bands before calling an iterative solver
          4466 MiB given to the printing process from OS
          -588 MiB allocation reported by mallinfo(arena+hblkhd)
         53409 MiB available memory on the node where the printing process lives
     GPU memory used/free/total (MiB): 5930 / 10350 / 16280
------------------
     ethr =  1.69E-09,  avg # of iterations =  1.0
     Minimization algorithm failed to find Fermi energy: reverting to bisection
     Possible cause: smearing is larger than the electronic band-gap.

     total cpu time spent up to now is      148.8 secs

     total energy              =    -420.23604659 Ry
     estimated scf accuracy    <       0.00000035 Ry

     total magnetization       =     2.01 Bohr mag/cell
     absolute magnetization    =     2.06 Bohr mag/cell
[tb_dev] Currently allocated     2.97E+01 Mbytes, locked:    0 /  12
[tb_pin] Currently allocated     0.00E+00 Mbytes, locked:    0 /   0

     iteration # 12     ecut=    90.00 Ry     beta= 0.20
     Davidson diagonalization with overlap

---- Real-time Memory Report at c_bands before calling an iterative solver
          4470 MiB given to the printing process from OS
          -584 MiB allocation reported by mallinfo(arena+hblkhd)
         53405 MiB available memory on the node where the printing process lives
     GPU memory used/free/total (MiB): 5930 / 10350 / 16280
------------------
     ethr =  1.60E-09,  avg # of iterations =  1.0
     Minimization algorithm failed to find Fermi energy: reverting to bisection
     Possible cause: smearing is larger than the electronic band-gap.

     total cpu time spent up to now is      160.1 secs

     total energy              =    -420.23604682 Ry
     estimated scf accuracy    <       0.00000034 Ry

     total magnetization       =     2.01 Bohr mag/cell
     absolute magnetization    =     2.06 Bohr mag/cell
[tb_dev] Currently allocated     2.97E+01 Mbytes, locked:    0 /  12
[tb_pin] Currently allocated     0.00E+00 Mbytes, locked:    0 /   0

     iteration # 13     ecut=    90.00 Ry     beta= 0.20
     Davidson diagonalization with overlap

---- Real-time Memory Report at c_bands before calling an iterative solver
          4474 MiB given to the printing process from OS
          -581 MiB allocation reported by mallinfo(arena+hblkhd)
         53373 MiB available memory on the node where the printing process lives
     GPU memory used/free/total (MiB): 5930 / 10350 / 16280
------------------
     ethr =  1.54E-09,  avg # of iterations =  1.3
     Minimization algorithm failed to find Fermi energy: reverting to bisection
     Possible cause: smearing is larger than the electronic band-gap.

     total cpu time spent up to now is      171.5 secs

     total energy              =    -420.23604703 Ry
     estimated scf accuracy    <       0.00000031 Ry

     total magnetization       =     2.01 Bohr mag/cell
     absolute magnetization    =     2.06 Bohr mag/cell
[tb_dev] Currently allocated     2.97E+01 Mbytes, locked:    0 /  12
[tb_pin] Currently allocated     0.00E+00 Mbytes, locked:    0 /   0

     iteration # 14     ecut=    90.00 Ry     beta= 0.20
     Davidson diagonalization with overlap

---- Real-time Memory Report at c_bands before calling an iterative solver
          4477 MiB given to the printing process from OS
          -577 MiB allocation reported by mallinfo(arena+hblkhd)
         53384 MiB available memory on the node where the printing process lives
     GPU memory used/free/total (MiB): 5930 / 10350 / 16280
------------------
     ethr =  1.40E-09,  avg # of iterations =  1.0
     Minimization algorithm failed to find Fermi energy: reverting to bisection
     Possible cause: smearing is larger than the electronic band-gap.

     total cpu time spent up to now is      182.5 secs

     total energy              =    -420.23604709 Ry
     estimated scf accuracy    <       0.00000030 Ry

     total magnetization       =     2.01 Bohr mag/cell
     absolute magnetization    =     2.06 Bohr mag/cell
[tb_dev] Currently allocated     2.97E+01 Mbytes, locked:    0 /  12
[tb_pin] Currently allocated     0.00E+00 Mbytes, locked:    0 /   0

     iteration # 15     ecut=    90.00 Ry     beta= 0.20
     Davidson diagonalization with overlap

---- Real-time Memory Report at c_bands before calling an iterative solver
          4481 MiB given to the printing process from OS
          -573 MiB allocation reported by mallinfo(arena+hblkhd)
         53385 MiB available memory on the node where the printing process lives
     GPU memory used/free/total (MiB): 5930 / 10350 / 16280
------------------
     ethr =  1.36E-09,  avg # of iterations =  1.5
     Minimization algorithm failed to find Fermi energy: reverting to bisection
     Possible cause: smearing is larger than the electronic band-gap.

     total cpu time spent up to now is      194.1 secs

     total energy              =    -420.23604701 Ry
     estimated scf accuracy    <       0.00000037 Ry

     total magnetization       =     2.01 Bohr mag/cell
     absolute magnetization    =     2.06 Bohr mag/cell
[tb_dev] Currently allocated     2.97E+01 Mbytes, locked:    0 /  12
[tb_pin] Currently allocated     0.00E+00 Mbytes, locked:    0 /   0

     iteration # 16     ecut=    90.00 Ry     beta= 0.20
     Davidson diagonalization with overlap

---- Real-time Memory Report at c_bands before calling an iterative solver
          4484 MiB given to the printing process from OS
          -570 MiB allocation reported by mallinfo(arena+hblkhd)
         53380 MiB available memory on the node where the printing process lives
     GPU memory used/free/total (MiB): 5930 / 10350 / 16280
------------------
     ethr =  1.36E-09,  avg # of iterations =  1.5
     Minimization algorithm failed to find Fermi energy: reverting to bisection
     Possible cause: smearing is larger than the electronic band-gap.

     total cpu time spent up to now is      206.0 secs

     total energy              =    -420.23604701 Ry
     estimated scf accuracy    <       0.00000035 Ry

     total magnetization       =     2.01 Bohr mag/cell
     absolute magnetization    =     2.06 Bohr mag/cell
[tb_dev] Currently allocated     2.97E+01 Mbytes, locked:    0 /  12
[tb_pin] Currently allocated     0.00E+00 Mbytes, locked:    0 /   0

     iteration # 17     ecut=    90.00 Ry     beta= 0.20
     Davidson diagonalization with overlap

---- Real-time Memory Report at c_bands before calling an iterative solver
          4488 MiB given to the printing process from OS
          -566 MiB allocation reported by mallinfo(arena+hblkhd)
         53379 MiB available memory on the node where the printing process lives
     GPU memory used/free/total (MiB): 5930 / 10350 / 16280
------------------
     ethr =  1.36E-09,  avg # of iterations =  1.0
     Minimization algorithm failed to find Fermi energy: reverting to bisection
     Possible cause: smearing is larger than the electronic band-gap.

     total cpu time spent up to now is      217.1 secs

     total energy              =    -420.23604669 Ry
     estimated scf accuracy    <       0.00000036 Ry

     total magnetization       =     2.01 Bohr mag/cell
     absolute magnetization    =     2.06 Bohr mag/cell
[tb_dev] Currently allocated     2.97E+01 Mbytes, locked:    0 /  12
[tb_pin] Currently allocated     0.00E+00 Mbytes, locked:    0 /   0

     iteration # 18     ecut=    90.00 Ry     beta= 0.20
     Davidson diagonalization with overlap

---- Real-time Memory Report at c_bands before calling an iterative solver
          4492 MiB given to the printing process from OS
          -562 MiB allocation reported by mallinfo(arena+hblkhd)
         53377 MiB available memory on the node where the printing process lives
     GPU memory used/free/total (MiB): 5930 / 10350 / 16280
------------------
     ethr =  1.36E-09,  avg # of iterations =  1.0
     Minimization algorithm failed to find Fermi energy: reverting to bisection
     Possible cause: smearing is larger than the electronic band-gap.

     total cpu time spent up to now is      228.1 secs

     total energy              =    -420.23604697 Ry
     estimated scf accuracy    <       0.00000035 Ry

     total magnetization       =     2.01 Bohr mag/cell
     absolute magnetization    =     2.06 Bohr mag/cell
[tb_dev] Currently allocated     2.97E+01 Mbytes, locked:    0 /  12
[tb_pin] Currently allocated     0.00E+00 Mbytes, locked:    0 /   0

     iteration # 19     ecut=    90.00 Ry     beta= 0.20
     Davidson diagonalization with overlap

---- Real-time Memory Report at c_bands before calling an iterative solver
          4496 MiB given to the printing process from OS
          -559 MiB allocation reported by mallinfo(arena+hblkhd)
         53361 MiB available memory on the node where the printing process lives
     GPU memory used/free/total (MiB): 5930 / 10350 / 16280
------------------
     ethr =  1.36E-09,  avg # of iterations =  1.4
     Minimization algorithm failed to find Fermi energy: reverting to bisection
     Possible cause: smearing is larger than the electronic band-gap.

     total cpu time spent up to now is      239.6 secs

     total energy              =    -420.23604686 Ry
     estimated scf accuracy    <       0.00000029 Ry

     total magnetization       =     2.01 Bohr mag/cell
     absolute magnetization    =     2.06 Bohr mag/cell
[tb_dev] Currently allocated     2.97E+01 Mbytes, locked:    0 /  12
[tb_pin] Currently allocated     0.00E+00 Mbytes, locked:    0 /   0

     iteration # 20     ecut=    90.00 Ry     beta= 0.20
     Davidson diagonalization with overlap

---- Real-time Memory Report at c_bands before calling an iterative solver
          4500 MiB given to the printing process from OS
          -555 MiB allocation reported by mallinfo(arena+hblkhd)
         53365 MiB available memory on the node where the printing process lives
     GPU memory used/free/total (MiB): 5930 / 10350 / 16280
------------------
     ethr =  1.33E-09,  avg # of iterations =  1.0
     Minimization algorithm failed to find Fermi energy: reverting to bisection
     Possible cause: smearing is larger than the electronic band-gap.

     total cpu time spent up to now is      250.6 secs

     total energy              =    -420.23604591 Ry
     estimated scf accuracy    <       0.00000029 Ry

     total magnetization       =     2.01 Bohr mag/cell
     absolute magnetization    =     2.06 Bohr mag/cell
[tb_dev] Currently allocated     2.97E+01 Mbytes, locked:    0 /  12
[tb_pin] Currently allocated     0.00E+00 Mbytes, locked:    0 /   0

     iteration # 21     ecut=    90.00 Ry     beta= 0.20
     Davidson diagonalization with overlap

---- Real-time Memory Report at c_bands before calling an iterative solver
          4502 MiB given to the printing process from OS
          -551 MiB allocation reported by mallinfo(arena+hblkhd)
         53362 MiB available memory on the node where the printing process lives
     GPU memory used/free/total (MiB): 5930 / 10350 / 16280
------------------
     ethr =  1.32E-09,  avg # of iterations =  1.8
     Minimization algorithm failed to find Fermi energy: reverting to bisection
     Possible cause: smearing is larger than the electronic band-gap.

     total cpu time spent up to now is      263.1 secs

     total energy              =    -420.23604635 Ry
     estimated scf accuracy    <       0.00000028 Ry

     total magnetization       =     2.01 Bohr mag/cell
     absolute magnetization    =     2.06 Bohr mag/cell
[tb_dev] Currently allocated     2.97E+01 Mbytes, locked:    0 /  12
[tb_pin] Currently allocated     0.00E+00 Mbytes, locked:    0 /   0

     iteration # 22     ecut=    90.00 Ry     beta= 0.20
     Davidson diagonalization with overlap

---- Real-time Memory Report at c_bands before calling an iterative solver
          4506 MiB given to the printing process from OS
          -548 MiB allocation reported by mallinfo(arena+hblkhd)
         53362 MiB available memory on the node where the printing process lives
     GPU memory used/free/total (MiB): 5930 / 10350 / 16280
------------------
     ethr =  1.29E-09,  avg # of iterations =  1.5
     Minimization algorithm failed to find Fermi energy: reverting to bisection
     Possible cause: smearing is larger than the electronic band-gap.

     total cpu time spent up to now is      274.6 secs

     total energy              =    -420.23604655 Ry
     estimated scf accuracy    <       0.00000029 Ry

     total magnetization       =     2.01 Bohr mag/cell
     absolute magnetization    =     2.06 Bohr mag/cell
[tb_dev] Currently allocated     2.97E+01 Mbytes, locked:    0 /  12
[tb_pin] Currently allocated     0.00E+00 Mbytes, locked:    0 /   0

     iteration # 23     ecut=    90.00 Ry     beta= 0.20
     Davidson diagonalization with overlap

---- Real-time Memory Report at c_bands before calling an iterative solver
          4510 MiB given to the printing process from OS
          -544 MiB allocation reported by mallinfo(arena+hblkhd)
         53358 MiB available memory on the node where the printing process lives
     GPU memory used/free/total (MiB): 5930 / 10350 / 16280
------------------
     ethr =  1.29E-09,  avg # of iterations =  1.0
     Minimization algorithm failed to find Fermi energy: reverting to bisection
     Possible cause: smearing is larger than the electronic band-gap.

     total cpu time spent up to now is      285.7 secs

     total energy              =    -420.23604678 Ry
     estimated scf accuracy    <       0.00000029 Ry

     total magnetization       =     2.01 Bohr mag/cell
     absolute magnetization    =     2.06 Bohr mag/cell
[tb_dev] Currently allocated     2.97E+01 Mbytes, locked:    0 /  12
[tb_pin] Currently allocated     0.00E+00 Mbytes, locked:    0 /   0

     iteration # 24     ecut=    90.00 Ry     beta= 0.20
     Davidson diagonalization with overlap

---- Real-time Memory Report at c_bands before calling an iterative solver
          4514 MiB given to the printing process from OS
          -540 MiB allocation reported by mallinfo(arena+hblkhd)
         53356 MiB available memory on the node where the printing process lives
     GPU memory used/free/total (MiB): 5930 / 10350 / 16280
------------------
     ethr =  1.29E-09,  avg # of iterations =  1.8
     Minimization algorithm failed to find Fermi energy: reverting to bisection
     Possible cause: smearing is larger than the electronic band-gap.

     total cpu time spent up to now is      298.3 secs

     total energy              =    -420.23604583 Ry
     estimated scf accuracy    <       0.00000034 Ry

     total magnetization       =     2.01 Bohr mag/cell
     absolute magnetization    =     2.06 Bohr mag/cell
[tb_dev] Currently allocated     2.97E+01 Mbytes, locked:    0 /  12
[tb_pin] Currently allocated     0.00E+00 Mbytes, locked:    0 /   0

     iteration # 25     ecut=    90.00 Ry     beta= 0.20
     Davidson diagonalization with overlap

---- Real-time Memory Report at c_bands before calling an iterative solver
          4518 MiB given to the printing process from OS
          -537 MiB allocation reported by mallinfo(arena+hblkhd)
         53354 MiB available memory on the node where the printing process lives
     GPU memory used/free/total (MiB): 5930 / 10350 / 16280
------------------
     ethr =  1.29E-09,  avg # of iterations =  2.1
     Minimization algorithm failed to find Fermi energy: reverting to bisection
     Possible cause: smearing is larger than the electronic band-gap.

     total cpu time spent up to now is      311.3 secs

     total energy              =    -420.23604405 Ry
     estimated scf accuracy    <       0.00000029 Ry

     total magnetization       =     2.01 Bohr mag/cell
     absolute magnetization    =     2.06 Bohr mag/cell
[tb_dev] Currently allocated     2.97E+01 Mbytes, locked:    0 /  12
[tb_pin] Currently allocated     0.00E+00 Mbytes, locked:    0 /   0

     iteration # 26     ecut=    90.00 Ry     beta= 0.20
     Davidson diagonalization with overlap

---- Real-time Memory Report at c_bands before calling an iterative solver
          4522 MiB given to the printing process from OS
          -533 MiB allocation reported by mallinfo(arena+hblkhd)
         53352 MiB available memory on the node where the printing process lives
     GPU memory used/free/total (MiB): 5930 / 10350 / 16280
------------------
     ethr =  1.29E-09,  avg # of iterations =  2.5
     Minimization algorithm failed to find Fermi energy: reverting to bisection
     Possible cause: smearing is larger than the electronic band-gap.

     total cpu time spent up to now is      325.8 secs

     total energy              =    -420.23604483 Ry
     estimated scf accuracy    <       0.00000035 Ry

     total magnetization       =     2.01 Bohr mag/cell
     absolute magnetization    =     2.06 Bohr mag/cell
[tb_dev] Currently allocated     2.97E+01 Mbytes, locked:    0 /  12
[tb_pin] Currently allocated     0.00E+00 Mbytes, locked:    0 /   0

     iteration # 27     ecut=    90.00 Ry     beta= 0.20
     Davidson diagonalization with overlap

---- Real-time Memory Report at c_bands before calling an iterative solver
          4525 MiB given to the printing process from OS
          -529 MiB allocation reported by mallinfo(arena+hblkhd)
         53344 MiB available memory on the node where the printing process lives
     GPU memory used/free/total (MiB): 5930 / 10350 / 16280
------------------
     ethr =  1.29E-09,  avg # of iterations =  1.5
     Minimization algorithm failed to find Fermi energy: reverting to bisection
     Possible cause: smearing is larger than the electronic band-gap.

     total cpu time spent up to now is      338.1 secs

     total energy              =    -420.23604543 Ry
     estimated scf accuracy    <       0.00000048 Ry

     total magnetization       =     2.01 Bohr mag/cell
     absolute magnetization    =     2.06 Bohr mag/cell
[tb_dev] Currently allocated     2.97E+01 Mbytes, locked:    0 /  12
[tb_pin] Currently allocated     0.00E+00 Mbytes, locked:    0 /   0

     iteration # 28     ecut=    90.00 Ry     beta= 0.20
     Davidson diagonalization with overlap

---- Real-time Memory Report at c_bands before calling an iterative solver
          4528 MiB given to the printing process from OS
          -526 MiB allocation reported by mallinfo(arena+hblkhd)
         53343 MiB available memory on the node where the printing process lives
     GPU memory used/free/total (MiB): 5930 / 10350 / 16280
------------------
     ethr =  1.29E-09,  avg # of iterations =  1.5
     Minimization algorithm failed to find Fermi energy: reverting to bisection
     Possible cause: smearing is larger than the electronic band-gap.

     total cpu time spent up to now is      350.3 secs

     total energy              =    -420.23604474 Ry
     estimated scf accuracy    <       0.00000038 Ry

     total magnetization       =     2.01 Bohr mag/cell
     absolute magnetization    =     2.06 Bohr mag/cell
[tb_dev] Currently allocated     2.97E+01 Mbytes, locked:    0 /  12
[tb_pin] Currently allocated     0.00E+00 Mbytes, locked:    0 /   0

     iteration # 29     ecut=    90.00 Ry     beta= 0.20
     Davidson diagonalization with overlap

---- Real-time Memory Report at c_bands before calling an iterative solver
          4532 MiB given to the printing process from OS
          -522 MiB allocation reported by mallinfo(arena+hblkhd)
         53340 MiB available memory on the node where the printing process lives
     GPU memory used/free/total (MiB): 5930 / 10350 / 16280
------------------
     ethr =  1.29E-09,  avg # of iterations =  1.5
     Minimization algorithm failed to find Fermi energy: reverting to bisection
     Possible cause: smearing is larger than the electronic band-gap.

     total cpu time spent up to now is      362.6 secs

     total energy              =    -420.23604486 Ry
     estimated scf accuracy    <       0.00000065 Ry

     total magnetization       =     2.02 Bohr mag/cell
     absolute magnetization    =     2.06 Bohr mag/cell
[tb_dev] Currently allocated     2.97E+01 Mbytes, locked:    0 /  12
[tb_pin] Currently allocated     0.00E+00 Mbytes, locked:    0 /   0

     iteration # 30     ecut=    90.00 Ry     beta= 0.20
     Davidson diagonalization with overlap

---- Real-time Memory Report at c_bands before calling an iterative solver
          4536 MiB given to the printing process from OS
          -518 MiB allocation reported by mallinfo(arena+hblkhd)
         53336 MiB available memory on the node where the printing process lives
     GPU memory used/free/total (MiB): 5930 / 10350 / 16280
------------------
     ethr =  1.29E-09,  avg # of iterations =  2.3
     Minimization algorithm failed to find Fermi energy: reverting to bisection
     Possible cause: smearing is larger than the electronic band-gap.

     total cpu time spent up to now is      376.5 secs

     total energy              =    -420.23604615 Ry
     estimated scf accuracy    <       0.00000036 Ry

     total magnetization       =     2.01 Bohr mag/cell
     absolute magnetization    =     2.06 Bohr mag/cell
[tb_dev] Currently allocated     2.97E+01 Mbytes, locked:    0 /  12
[tb_pin] Currently allocated     0.00E+00 Mbytes, locked:    0 /   0

     iteration # 31     ecut=    90.00 Ry     beta= 0.20
     Davidson diagonalization with overlap

---- Real-time Memory Report at c_bands before calling an iterative solver
          4540 MiB given to the printing process from OS
          -514 MiB allocation reported by mallinfo(arena+hblkhd)
         53333 MiB available memory on the node where the printing process lives
     GPU memory used/free/total (MiB): 5930 / 10350 / 16280
------------------
     ethr =  1.29E-09,  avg # of iterations =  1.5
     Minimization algorithm failed to find Fermi energy: reverting to bisection
     Possible cause: smearing is larger than the electronic band-gap.

     total cpu time spent up to now is      388.7 secs

     total energy              =    -420.23604572 Ry
     estimated scf accuracy    <       0.00000029 Ry

     total magnetization       =     2.01 Bohr mag/cell
     absolute magnetization    =     2.06 Bohr mag/cell
[tb_dev] Currently allocated     2.97E+01 Mbytes, locked:    0 /  12
[tb_pin] Currently allocated     0.00E+00 Mbytes, locked:    0 /   0

     iteration # 32     ecut=    90.00 Ry     beta= 0.20
     Davidson diagonalization with overlap

---- Real-time Memory Report at c_bands before calling an iterative solver
          4544 MiB given to the printing process from OS
          -510 MiB allocation reported by mallinfo(arena+hblkhd)
         53327 MiB available memory on the node where the printing process lives
     GPU memory used/free/total (MiB): 5930 / 10350 / 16280
------------------
     ethr =  1.29E-09,  avg # of iterations =  1.5
     Minimization algorithm failed to find Fermi energy: reverting to bisection
     Possible cause: smearing is larger than the electronic band-gap.

     total cpu time spent up to now is      400.4 secs

     total energy              =    -420.23604600 Ry
     estimated scf accuracy    <       0.00000033 Ry

     total magnetization       =     2.01 Bohr mag/cell
     absolute magnetization    =     2.06 Bohr mag/cell
[tb_dev] Currently allocated     2.97E+01 Mbytes, locked:    0 /  12
[tb_pin] Currently allocated     0.00E+00 Mbytes, locked:    0 /   0

     iteration # 33     ecut=    90.00 Ry     beta= 0.20
     Davidson diagonalization with overlap

---- Real-time Memory Report at c_bands before calling an iterative solver
          4548 MiB given to the printing process from OS
          -506 MiB allocation reported by mallinfo(arena+hblkhd)
         53327 MiB available memory on the node where the printing process lives
     GPU memory used/free/total (MiB): 5930 / 10350 / 16280
------------------
     ethr =  1.29E-09,  avg # of iterations =  1.5
     Minimization algorithm failed to find Fermi energy: reverting to bisection
     Possible cause: smearing is larger than the electronic band-gap.

     total cpu time spent up to now is      412.7 secs

     total energy              =    -420.23604664 Ry
     estimated scf accuracy    <       0.00000032 Ry

     total magnetization       =     2.01 Bohr mag/cell
     absolute magnetization    =     2.06 Bohr mag/cell
[tb_dev] Currently allocated     2.97E+01 Mbytes, locked:    0 /  12
[tb_pin] Currently allocated     0.00E+00 Mbytes, locked:    0 /   0

     iteration # 34     ecut=    90.00 Ry     beta= 0.20
     Davidson diagonalization with overlap

---- Real-time Memory Report at c_bands before calling an iterative solver
          4552 MiB given to the printing process from OS
          -502 MiB allocation reported by mallinfo(arena+hblkhd)
         53319 MiB available memory on the node where the printing process lives
     GPU memory used/free/total (MiB): 5930 / 10350 / 16280
------------------
     ethr =  1.29E-09,  avg # of iterations =  1.5
     Minimization algorithm failed to find Fermi energy: reverting to bisection
     Possible cause: smearing is larger than the electronic band-gap.

     total cpu time spent up to now is      425.1 secs

     total energy              =    -420.23604509 Ry
     estimated scf accuracy    <       0.00000028 Ry

     total magnetization       =     2.01 Bohr mag/cell
     absolute magnetization    =     2.06 Bohr mag/cell
[tb_dev] Currently allocated     2.97E+01 Mbytes, locked:    0 /  12
[tb_pin] Currently allocated     0.00E+00 Mbytes, locked:    0 /   0

     iteration # 35     ecut=    90.00 Ry     beta= 0.20
     Davidson diagonalization with overlap

---- Real-time Memory Report at c_bands before calling an iterative solver
          4556 MiB given to the printing process from OS
          -498 MiB allocation reported by mallinfo(arena+hblkhd)
         53316 MiB available memory on the node where the printing process lives
     GPU memory used/free/total (MiB): 5930 / 10350 / 16280
------------------
     ethr =  1.29E-09,  avg # of iterations =  2.0
     Minimization algorithm failed to find Fermi energy: reverting to bisection
     Possible cause: smearing is larger than the electronic band-gap.

     total cpu time spent up to now is      438.6 secs

     total energy              =    -420.23604614 Ry
     estimated scf accuracy    <       0.00000030 Ry

     total magnetization       =     2.01 Bohr mag/cell
     absolute magnetization    =     2.06 Bohr mag/cell
[tb_dev] Currently allocated     2.97E+01 Mbytes, locked:    0 /  12
[tb_pin] Currently allocated     0.00E+00 Mbytes, locked:    0 /   0

     iteration # 36     ecut=    90.00 Ry     beta= 0.20
     Davidson diagonalization with overlap

---- Real-time Memory Report at c_bands before calling an iterative solver
          4560 MiB given to the printing process from OS
          -494 MiB allocation reported by mallinfo(arena+hblkhd)
         53314 MiB available memory on the node where the printing process lives
     GPU memory used/free/total (MiB): 5930 / 10350 / 16280
------------------
     ethr =  1.29E-09,  avg # of iterations =  1.0
     Minimization algorithm failed to find Fermi energy: reverting to bisection
     Possible cause: smearing is larger than the electronic band-gap.

     total cpu time spent up to now is      449.7 secs

     total energy              =    -420.23604576 Ry
     estimated scf accuracy    <       0.00000035 Ry

     total magnetization       =     2.01 Bohr mag/cell
     absolute magnetization    =     2.06 Bohr mag/cell
[tb_dev] Currently allocated     2.97E+01 Mbytes, locked:    0 /  12
[tb_pin] Currently allocated     0.00E+00 Mbytes, locked:    0 /   0

     iteration # 37     ecut=    90.00 Ry     beta= 0.20
     Davidson diagonalization with overlap

---- Real-time Memory Report at c_bands before calling an iterative solver
          4564 MiB given to the printing process from OS
          -490 MiB allocation reported by mallinfo(arena+hblkhd)
         53308 MiB available memory on the node where the printing process lives
     GPU memory used/free/total (MiB): 5930 / 10350 / 16280
------------------
     ethr =  1.29E-09,  avg # of iterations =  1.5
     Minimization algorithm failed to find Fermi energy: reverting to bisection
     Possible cause: smearing is larger than the electronic band-gap.

     total cpu time spent up to now is      461.6 secs

     total energy              =    -420.23604580 Ry
     estimated scf accuracy    <       0.00000039 Ry

     total magnetization       =     2.01 Bohr mag/cell
     absolute magnetization    =     2.06 Bohr mag/cell
[tb_dev] Currently allocated     2.97E+01 Mbytes, locked:    0 /  12
[tb_pin] Currently allocated     0.00E+00 Mbytes, locked:    0 /   0

     iteration # 38     ecut=    90.00 Ry     beta= 0.20
     Davidson diagonalization with overlap

---- Real-time Memory Report at c_bands before calling an iterative solver
          4568 MiB given to the printing process from OS
          -486 MiB allocation reported by mallinfo(arena+hblkhd)
         53305 MiB available memory on the node where the printing process lives
     GPU memory used/free/total (MiB): 5930 / 10350 / 16280
------------------
     ethr =  1.29E-09,  avg # of iterations =  1.5
     Minimization algorithm failed to find Fermi energy: reverting to bisection
     Possible cause: smearing is larger than the electronic band-gap.

     total cpu time spent up to now is      473.3 secs

     total energy              =    -420.23604553 Ry
     estimated scf accuracy    <       0.00000037 Ry

     total magnetization       =     2.01 Bohr mag/cell
     absolute magnetization    =     2.06 Bohr mag/cell
[tb_dev] Currently allocated     2.97E+01 Mbytes, locked:    0 /  12
[tb_pin] Currently allocated     0.00E+00 Mbytes, locked:    0 /   0

     iteration # 39     ecut=    90.00 Ry     beta= 0.20
     Davidson diagonalization with overlap

---- Real-time Memory Report at c_bands before calling an iterative solver
          4573 MiB given to the printing process from OS
          -482 MiB allocation reported by mallinfo(arena+hblkhd)
         53302 MiB available memory on the node where the printing process lives
     GPU memory used/free/total (MiB): 5930 / 10350 / 16280
------------------
     ethr =  1.29E-09,  avg # of iterations =  1.5
     Minimization algorithm failed to find Fermi energy: reverting to bisection
     Possible cause: smearing is larger than the electronic band-gap.

     total cpu time spent up to now is      485.0 secs

     total energy              =    -420.23604589 Ry
     estimated scf accuracy    <       0.00000065 Ry

     total magnetization       =     2.02 Bohr mag/cell
     absolute magnetization    =     2.06 Bohr mag/cell
[tb_dev] Currently allocated     2.97E+01 Mbytes, locked:    0 /  12
[tb_pin] Currently allocated     0.00E+00 Mbytes, locked:    0 /   0

     iteration # 40     ecut=    90.00 Ry     beta= 0.20
     Davidson diagonalization with overlap

---- Real-time Memory Report at c_bands before calling an iterative solver
          4576 MiB given to the printing process from OS
          -478 MiB allocation reported by mallinfo(arena+hblkhd)
         53296 MiB available memory on the node where the printing process lives
     GPU memory used/free/total (MiB): 5930 / 10350 / 16280
------------------
     ethr =  1.29E-09,  avg # of iterations =  1.5
     Minimization algorithm failed to find Fermi energy: reverting to bisection
     Possible cause: smearing is larger than the electronic band-gap.

     total cpu time spent up to now is      497.3 secs

     total energy              =    -420.23604609 Ry
     estimated scf accuracy    <       0.00000028 Ry

     total magnetization       =     2.01 Bohr mag/cell
     absolute magnetization    =     2.06 Bohr mag/cell
[tb_dev] Currently allocated     2.97E+01 Mbytes, locked:    0 /  12
[tb_pin] Currently allocated     0.00E+00 Mbytes, locked:    0 /   0

     iteration # 41     ecut=    90.00 Ry     beta= 0.20
     Davidson diagonalization with overlap

---- Real-time Memory Report at c_bands before calling an iterative solver
          4581 MiB given to the printing process from OS
          -474 MiB allocation reported by mallinfo(arena+hblkhd)
         53294 MiB available memory on the node where the printing process lives
     GPU memory used/free/total (MiB): 5930 / 10350 / 16280
------------------
     ethr =  1.25E-09,  avg # of iterations =  1.5
     Minimization algorithm failed to find Fermi energy: reverting to bisection
     Possible cause: smearing is larger than the electronic band-gap.

     total cpu time spent up to now is      509.6 secs

     total energy              =    -420.23604579 Ry
     estimated scf accuracy    <       0.00000028 Ry

     total magnetization       =     2.01 Bohr mag/cell
     absolute magnetization    =     2.06 Bohr mag/cell
[tb_dev] Currently allocated     2.97E+01 Mbytes, locked:    0 /  12
[tb_pin] Currently allocated     0.00E+00 Mbytes, locked:    0 /   0

     iteration # 42     ecut=    90.00 Ry     beta= 0.20
     Davidson diagonalization with overlap

---- Real-time Memory Report at c_bands before calling an iterative solver
          4584 MiB given to the printing process from OS
          -470 MiB allocation reported by mallinfo(arena+hblkhd)
         53289 MiB available memory on the node where the printing process lives
     GPU memory used/free/total (MiB): 5930 / 10350 / 16280
------------------
     ethr =  1.25E-09,  avg # of iterations =  2.3
     Minimization algorithm failed to find Fermi energy: reverting to bisection
     Possible cause: smearing is larger than the electronic band-gap.

     total cpu time spent up to now is      523.0 secs

     total energy              =    -420.23604505 Ry
     estimated scf accuracy    <       0.00000028 Ry

     total magnetization       =     2.01 Bohr mag/cell
     absolute magnetization    =     2.06 Bohr mag/cell
[tb_dev] Currently allocated     2.97E+01 Mbytes, locked:    0 /  12
[tb_pin] Currently allocated     0.00E+00 Mbytes, locked:    0 /   0

     iteration # 43     ecut=    90.00 Ry     beta= 0.20
     Davidson diagonalization with overlap

---- Real-time Memory Report at c_bands before calling an iterative solver
          4589 MiB given to the printing process from OS
          -466 MiB allocation reported by mallinfo(arena+hblkhd)
         53282 MiB available memory on the node where the printing process lives
     GPU memory used/free/total (MiB): 5930 / 10350 / 16280
------------------
     ethr =  1.25E-09,  avg # of iterations =  2.0
     Minimization algorithm failed to find Fermi energy: reverting to bisection
     Possible cause: smearing is larger than the electronic band-gap.

     total cpu time spent up to now is      536.0 secs

     total energy              =    -420.23604566 Ry
     estimated scf accuracy    <       0.00000031 Ry

     total magnetization       =     2.01 Bohr mag/cell
     absolute magnetization    =     2.06 Bohr mag/cell
[tb_dev] Currently allocated     2.97E+01 Mbytes, locked:    0 /  12
[tb_pin] Currently allocated     0.00E+00 Mbytes, locked:    0 /   0

     iteration # 44     ecut=    90.00 Ry     beta= 0.20
     Davidson diagonalization with overlap

---- Real-time Memory Report at c_bands before calling an iterative solver
          4593 MiB given to the printing process from OS
          -461 MiB allocation reported by mallinfo(arena+hblkhd)
         53280 MiB available memory on the node where the printing process lives
     GPU memory used/free/total (MiB): 5930 / 10350 / 16280
------------------
     ethr =  1.25E-09,  avg # of iterations =  1.0
     Minimization algorithm failed to find Fermi energy: reverting to bisection
     Possible cause: smearing is larger than the electronic band-gap.

     total cpu time spent up to now is      547.3 secs

     total energy              =    -420.23604607 Ry
     estimated scf accuracy    <       0.00000031 Ry

     total magnetization       =     2.01 Bohr mag/cell
     absolute magnetization    =     2.06 Bohr mag/cell
[tb_dev] Currently allocated     2.97E+01 Mbytes, locked:    0 /  12
[tb_pin] Currently allocated     0.00E+00 Mbytes, locked:    0 /   0

     iteration # 45     ecut=    90.00 Ry     beta= 0.20
     Davidson diagonalization with overlap

---- Real-time Memory Report at c_bands before calling an iterative solver
          4597 MiB given to the printing process from OS
          -457 MiB allocation reported by mallinfo(arena+hblkhd)
         53279 MiB available memory on the node where the printing process lives
     GPU memory used/free/total (MiB): 5930 / 10350 / 16280
------------------
     ethr =  1.25E-09,  avg # of iterations =  2.1
     Minimization algorithm failed to find Fermi energy: reverting to bisection
     Possible cause: smearing is larger than the electronic band-gap.

     total cpu time spent up to now is      560.9 secs

     total energy              =    -420.23604688 Ry
     estimated scf accuracy    <       0.00000031 Ry

     total magnetization       =     2.01 Bohr mag/cell
     absolute magnetization    =     2.06 Bohr mag/cell
[tb_dev] Currently allocated     2.97E+01 Mbytes, locked:    0 /  12
[tb_pin] Currently allocated     0.00E+00 Mbytes, locked:    0 /   0

     iteration # 46     ecut=    90.00 Ry     beta= 0.20
     Davidson diagonalization with overlap

---- Real-time Memory Report at c_bands before calling an iterative solver
          4601 MiB given to the printing process from OS
          -453 MiB allocation reported by mallinfo(arena+hblkhd)
         53273 MiB available memory on the node where the printing process lives
     GPU memory used/free/total (MiB): 5930 / 10350 / 16280
------------------
     ethr =  1.25E-09,  avg # of iterations =  2.3
     Minimization algorithm failed to find Fermi energy: reverting to bisection
     Possible cause: smearing is larger than the electronic band-gap.

     total cpu time spent up to now is      574.7 secs

     total energy              =    -420.23604775 Ry
     estimated scf accuracy    <       0.00000025 Ry

     total magnetization       =     2.01 Bohr mag/cell
     absolute magnetization    =     2.07 Bohr mag/cell
[tb_dev] Currently allocated     2.97E+01 Mbytes, locked:    0 /  12
[tb_pin] Currently allocated     0.00E+00 Mbytes, locked:    0 /   0

     iteration # 47     ecut=    90.00 Ry     beta= 0.20
     Davidson diagonalization with overlap

[...]
     absolute magnetization    =     2.07 Bohr mag/cell
[tb_dev] Currently allocated     2.97E+01 Mbytes, locked:    0 /  12
[tb_pin] Currently allocated     0.00E+00 Mbytes, locked:    0 /   0

     iteration # 67     ecut=    90.00 Ry     beta= 0.20
     Davidson diagonalization with overlap

---- Real-time Memory Report at c_bands before calling an iterative solver
          4686 MiB given to the printing process from OS
          -369 MiB allocation reported by mallinfo(arena+hblkhd)
         53188 MiB available memory on the node where the printing process lives
     GPU memory used/free/total (MiB): 5930 / 10350 / 16280
------------------
     ethr =  4.86E-10,  avg # of iterations =  1.4
     Minimization algorithm failed to find Fermi energy: reverting to bisection
     Possible cause: smearing is larger than the electronic band-gap.

     total cpu time spent up to now is      832.9 secs

     total energy              =    -420.23604766 Ry
     estimated scf accuracy    <       0.00000010 Ry

     total magnetization       =     2.02 Bohr mag/cell
     absolute magnetization    =     2.07 Bohr mag/cell
[tb_dev] Currently allocated     2.97E+01 Mbytes, locked:    0 /  12
[tb_pin] Currently allocated     0.00E+00 Mbytes, locked:    0 /   0

     iteration # 68     ecut=    90.00 Ry     beta= 0.20
     Davidson diagonalization with overlap

---- Real-time Memory Report at c_bands before calling an iterative solver
          4689 MiB given to the printing process from OS
          -365 MiB allocation reported by mallinfo(arena+hblkhd)
         53184 MiB available memory on the node where the printing process lives
     GPU memory used/free/total (MiB): 5930 / 10350 / 16280
------------------
     ethr =  4.77E-10,  avg # of iterations =  1.0
     Minimization algorithm failed to find Fermi energy: reverting to bisection
     Possible cause: smearing is larger than the electronic band-gap.

     total cpu time spent up to now is      844.0 secs

     total energy              =    -420.23604768 Ry
     estimated scf accuracy    <       0.00000011 Ry

     total magnetization       =     2.02 Bohr mag/cell
     absolute magnetization    =     2.07 Bohr mag/cell
[tb_dev] Currently allocated     2.97E+01 Mbytes, locked:    0 /  12
[tb_pin] Currently allocated     0.00E+00 Mbytes, locked:    0 /   0

     iteration # 69     ecut=    90.00 Ry     beta= 0.20
     Davidson diagonalization with overlap

---- Real-time Memory Report at c_bands before calling an iterative solver
          4693 MiB given to the printing process from OS
          -361 MiB allocation reported by mallinfo(arena+hblkhd)
         53180 MiB available memory on the node where the printing process lives
     GPU memory used/free/total (MiB): 5930 / 10350 / 16280
------------------
     ethr =  4.77E-10,  avg # of iterations =  1.0
     Minimization algorithm failed to find Fermi energy: reverting to bisection
     Possible cause: smearing is larger than the electronic band-gap.

     total cpu time spent up to now is      855.2 secs

     total energy              =    -420.23604769 Ry
     estimated scf accuracy    <       0.00000010 Ry

     total magnetization       =     2.02 Bohr mag/cell
     absolute magnetization    =     2.07 Bohr mag/cell
[tb_dev] Currently allocated     2.97E+01 Mbytes, locked:    0 /  12
[tb_pin] Currently allocated     0.00E+00 Mbytes, locked:    0 /   0

     iteration # 70     ecut=    90.00 Ry     beta= 0.20
     Davidson diagonalization with overlap

---- Real-time Memory Report at c_bands before calling an iterative solver
          4698 MiB given to the printing process from OS
          -357 MiB allocation reported by mallinfo(arena+hblkhd)
         53175 MiB available memory on the node where the printing process lives
     GPU memory used/free/total (MiB): 5930 / 10350 / 16280
------------------
     ethr =  4.77E-10,  avg # of iterations =  1.0
     Minimization algorithm failed to find Fermi energy: reverting to bisection
     Possible cause: smearing is larger than the electronic band-gap.

     total cpu time spent up to now is      866.5 secs

     total energy              =    -420.23604768 Ry
     estimated scf accuracy    <       0.00000010 Ry

     total magnetization       =     2.02 Bohr mag/cell
     absolute magnetization    =     2.07 Bohr mag/cell
[tb_dev] Currently allocated     2.97E+01 Mbytes, locked:    0 /  12
[tb_pin] Currently allocated     0.00E+00 Mbytes, locked:    0 /   0

     iteration # 71     ecut=    90.00 Ry     beta= 0.20
     Davidson diagonalization with overlap

---- Real-time Memory Report at c_bands before calling an iterative solver
          4701 MiB given to the printing process from OS
          -353 MiB allocation reported by mallinfo(arena+hblkhd)
         53174 MiB available memory on the node where the printing process lives
     GPU memory used/free/total (MiB): 5930 / 10350 / 16280
------------------
     ethr =  4.77E-10,  avg # of iterations =  1.0
     Minimization algorithm failed to find Fermi energy: reverting to bisection
     Possible cause: smearing is larger than the electronic band-gap.

     total cpu time spent up to now is      877.8 secs

     total energy              =    -420.23604768 Ry
     estimated scf accuracy    <       0.00000011 Ry

     total magnetization       =     2.02 Bohr mag/cell
     absolute magnetization    =     2.07 Bohr mag/cell
[tb_dev] Currently allocated     2.97E+01 Mbytes, locked:    0 /  12
[tb_pin] Currently allocated     0.00E+00 Mbytes, locked:    0 /   0

     iteration # 72     ecut=    90.00 Ry     beta= 0.20
     Davidson diagonalization with overlap

---- Real-time Memory Report at c_bands before calling an iterative solver
          4706 MiB given to the printing process from OS
          -348 MiB allocation reported by mallinfo(arena+hblkhd)
         53167 MiB available memory on the node where the printing process lives
     GPU memory used/free/total (MiB): 5930 / 10350 / 16280
------------------
     ethr =  4.77E-10,  avg # of iterations =  1.0
     Minimization algorithm failed to find Fermi energy: reverting to bisection
     Possible cause: smearing is larger than the electronic band-gap.

     total cpu time spent up to now is      889.0 secs

     total energy              =    -420.23604769 Ry
     estimated scf accuracy    <       0.00000011 Ry

     total magnetization       =     2.02 Bohr mag/cell
     absolute magnetization    =     2.07 Bohr mag/cell
[tb_dev] Currently allocated     2.97E+01 Mbytes, locked:    0 /  12
[tb_pin] Currently allocated     0.00E+00 Mbytes, locked:    0 /   0

     iteration # 73     ecut=    90.00 Ry     beta= 0.20
     Davidson diagonalization with overlap

---- Real-time Memory Report at c_bands before calling an iterative solver
          4709 MiB given to the printing process from OS
          -344 MiB allocation reported by mallinfo(arena+hblkhd)
         53164 MiB available memory on the node where the printing process lives
     GPU memory used/free/total (MiB): 5930 / 10350 / 16280
------------------
     ethr =  4.77E-10,  avg # of iterations =  1.0
     Minimization algorithm failed to find Fermi energy: reverting to bisection
     Possible cause: smearing is larger than the electronic band-gap.

     total cpu time spent up to now is      900.2 secs

     total energy              =    -420.23604769 Ry
     estimated scf accuracy    <       0.00000011 Ry

     total magnetization       =     2.02 Bohr mag/cell
     absolute magnetization    =     2.07 Bohr mag/cell
[tb_dev] Currently allocated     2.97E+01 Mbytes, locked:    0 /  12
[tb_pin] Currently allocated     0.00E+00 Mbytes, locked:    0 /   0

     iteration # 74     ecut=    90.00 Ry     beta= 0.20
     Davidson diagonalization with overlap

---- Real-time Memory Report at c_bands before calling an iterative solver
          4714 MiB given to the printing process from OS
          -340 MiB allocation reported by mallinfo(arena+hblkhd)
         53160 MiB available memory on the node where the printing process lives
     GPU memory used/free/total (MiB): 5930 / 10350 / 16280
------------------
     ethr =  4.77E-10,  avg # of iterations =  1.0
     Minimization algorithm failed to find Fermi energy: reverting to bisection
     Possible cause: smearing is larger than the electronic band-gap.

     total cpu time spent up to now is      911.3 secs

     total energy              =    -420.23604770 Ry
     estimated scf accuracy    <       0.00000011 Ry

     total magnetization       =     2.02 Bohr mag/cell
     absolute magnetization    =     2.07 Bohr mag/cell
[tb_dev] Currently allocated     2.97E+01 Mbytes, locked:    0 /  12
[tb_pin] Currently allocated     0.00E+00 Mbytes, locked:    0 /   0

     iteration # 75     ecut=    90.00 Ry     beta= 0.20
     Davidson diagonalization with overlap

---- Real-time Memory Report at c_bands before calling an iterative solver
          4717 MiB given to the printing process from OS
          -336 MiB allocation reported by mallinfo(arena+hblkhd)
         53157 MiB available memory on the node where the printing process lives
     GPU memory used/free/total (MiB): 5930 / 10350 / 16280
------------------
     ethr =  4.77E-10,  avg # of iterations =  1.0
     Minimization algorithm failed to find Fermi energy: reverting to bisection
     Possible cause: smearing is larger than the electronic band-gap.

     total cpu time spent up to now is      922.3 secs

     total energy              =    -420.23604770 Ry
     estimated scf accuracy    <       0.00000011 Ry

     total magnetization       =     2.02 Bohr mag/cell
     absolute magnetization    =     2.07 Bohr mag/cell
[tb_dev] Currently allocated     2.97E+01 Mbytes, locked:    0 /  12
[tb_pin] Currently allocated     0.00E+00 Mbytes, locked:    0 /   0

     iteration # 76     ecut=    90.00 Ry     beta= 0.20
     Davidson diagonalization with overlap

---- Real-time Memory Report at c_bands before calling an iterative solver
          4722 MiB given to the printing process from OS
          -332 MiB allocation reported by mallinfo(arena+hblkhd)
         53149 MiB available memory on the node where the printing process lives
     GPU memory used/free/total (MiB): 5930 / 10350 / 16280
------------------
     ethr =  4.77E-10,  avg # of iterations =  1.0
     Minimization algorithm failed to find Fermi energy: reverting to bisection
     Possible cause: smearing is larger than the electronic band-gap.

     total cpu time spent up to now is      933.3 secs

     total energy              =    -420.23604771 Ry
     estimated scf accuracy    <       0.00000011 Ry

     total magnetization       =     2.02 Bohr mag/cell
     absolute magnetization    =     2.07 Bohr mag/cell
[tb_dev] Currently allocated     2.97E+01 Mbytes, locked:    0 /  12
[tb_pin] Currently allocated     0.00E+00 Mbytes, locked:    0 /   0

     iteration # 77     ecut=    90.00 Ry     beta= 0.20
     Davidson diagonalization with overlap

---- Real-time Memory Report at c_bands before calling an iterative solver
          4733 MiB given to the printing process from OS
          -328 MiB allocation reported by mallinfo(arena+hblkhd)
         53149 MiB available memory on the node where the printing process lives
     GPU memory used/free/total (MiB): 5930 / 10350 / 16280
------------------
     ethr =  4.77E-10,  avg # of iterations =  1.0
     Minimization algorithm failed to find Fermi energy: reverting to bisection
     Possible cause: smearing is larger than the electronic band-gap.

     total cpu time spent up to now is      944.7 secs

     total energy              =    -420.23604768 Ry
     estimated scf accuracy    <       0.00000011 Ry

     total magnetization       =     2.02 Bohr mag/cell
     absolute magnetization    =     2.07 Bohr mag/cell
[tb_dev] Currently allocated     2.97E+01 Mbytes, locked:    0 /  12
[tb_pin] Currently allocated     0.00E+00 Mbytes, locked:    0 /   0

     iteration # 78     ecut=    90.00 Ry     beta= 0.20
     Davidson diagonalization with overlap

---- Real-time Memory Report at c_bands before calling an iterative solver
          4737 MiB given to the printing process from OS
          -324 MiB allocation reported by mallinfo(arena+hblkhd)
         53142 MiB available memory on the node where the printing process lives
     GPU memory used/free/total (MiB): 5930 / 10350 / 16280
------------------
     ethr =  4.77E-10,  avg # of iterations =  1.5
     Minimization algorithm failed to find Fermi energy: reverting to bisection
     Possible cause: smearing is larger than the electronic band-gap.

     total cpu time spent up to now is      957.0 secs

     total energy              =    -420.23604773 Ry
     estimated scf accuracy    <       0.00000009 Ry

     total magnetization       =     2.02 Bohr mag/cell
     absolute magnetization    =     2.07 Bohr mag/cell
[tb_dev] Currently allocated     2.97E+01 Mbytes, locked:    0 /  12
[tb_pin] Currently allocated     0.00E+00 Mbytes, locked:    0 /   0

     iteration # 79     ecut=    90.00 Ry     beta= 0.20
     Davidson diagonalization with overlap

---- Real-time Memory Report at c_bands before calling an iterative solver
          4742 MiB given to the printing process from OS
          -320 MiB allocation reported by mallinfo(arena+hblkhd)
         53138 MiB available memory on the node where the printing process lives
     GPU memory used/free/total (MiB): 5930 / 10350 / 16280
------------------
     ethr =  4.27E-10,  avg # of iterations =  1.5
     Minimization algorithm failed to find Fermi energy: reverting to bisection
     Possible cause: smearing is larger than the electronic band-gap.

     total cpu time spent up to now is      969.4 secs

     total energy              =    -420.23604780 Ry
     estimated scf accuracy    <       0.00000007 Ry

     total magnetization       =     2.02 Bohr mag/cell
     absolute magnetization    =     2.07 Bohr mag/cell
[tb_dev] Currently allocated     2.97E+01 Mbytes, locked:    0 /  12
[tb_pin] Currently allocated     0.00E+00 Mbytes, locked:    0 /   0

     iteration # 80     ecut=    90.00 Ry     beta= 0.20
     Davidson diagonalization with overlap

---- Real-time Memory Report at c_bands before calling an iterative solver
          4745 MiB given to the printing process from OS
          -316 MiB allocation reported by mallinfo(arena+hblkhd)
         53137 MiB available memory on the node where the printing process lives
     GPU memory used/free/total (MiB): 5930 / 10350 / 16280
------------------
     ethr =  3.40E-10,  avg # of iterations =  2.3
     Minimization algorithm failed to find Fermi energy: reverting to bisection
     Possible cause: smearing is larger than the electronic band-gap.

     total cpu time spent up to now is      982.4 secs

     total energy              =    -420.23604787 Ry
     estimated scf accuracy    <       0.00000007 Ry

     total magnetization       =     2.02 Bohr mag/cell
     absolute magnetization    =     2.07 Bohr mag/cell

     End of self-consistent calculation

     convergence NOT achieved after  80 iterations: stopping

     Writing config to output data dir ./out/aiida.save/
 
     init_run     :     28.25s CPU      5.48s WALL (       1 calls)
     electrons    :   1871.80s CPU    976.82s WALL (       1 calls)

     Called by init_run:
     wfcinit      :      0.14s CPU      0.15s WALL (       1 calls)
                                        0.15s GPU  (       1 calls)
     potinit      :     12.51s CPU      1.48s WALL (       1 calls)
     hinit0       :      8.01s CPU      2.06s WALL (       1 calls)

     Called by electrons:
     c_bands      :    705.88s CPU    701.41s WALL (      81 calls)
     sum_band     :    172.38s CPU    177.88s WALL (      81 calls)
     v_of_rho     :     85.87s CPU     13.71s WALL (      81 calls)
     v_h          :     19.98s CPU      1.84s WALL (      81 calls)
     v_xc         :     65.88s CPU     11.87s WALL (      81 calls)
     newd         :     98.89s CPU      9.17s WALL (      81 calls)
                                        9.17s GPU  (      81 calls)
     PAW_pot      :    606.86s CPU     55.02s WALL (      81 calls)
     mix_rho      :    138.84s CPU     13.52s WALL (      81 calls)

     Called by c_bands:
     init_us_2    :     24.33s CPU     33.94s WALL (   45360 calls)
     init_us_2:gp :     23.51s CPU     33.16s WALL (   45360 calls)
     cegterg      :    580.52s CPU    552.80s WALL (   22680 calls)

     Called by sum_band:
     sum_band:wei :      1.38s CPU      1.39s WALL (      81 calls)
                                        1.38s GPU  (      81 calls)
     sum_band:loo :    154.92s CPU    160.31s WALL (      81 calls)
                                      160.31s GPU  (      81 calls)
     sum_band:buf :     46.67s CPU     47.52s WALL (   22680 calls)
                                       47.38s GPU  (   22680 calls)
     sum_band:ini :     10.54s CPU     11.53s WALL (   22680 calls)
                                       11.40s GPU  (   22680 calls)
     sum_band:cal :      0.78s CPU     22.69s WALL (   22680 calls)
                                        5.05s GPU  (   22680 calls)
     sum_band:bec :      2.04s CPU      2.32s WALL (   22680 calls)
                                        2.17s GPU  (   22680 calls)
     addusdens    :      7.86s CPU      7.95s WALL (      81 calls)
                                        7.95s GPU  (      81 calls)
     addusd:skk   :      0.01s CPU      0.02s WALL (      81 calls)
                                        0.01s GPU  (      81 calls)

     Called by *egterg:
     cdiaghg      :     48.54s CPU     49.60s WALL (   55540 calls)
                                       49.22s GPU  (   55540 calls)
     cegterg:over :     12.46s CPU     12.25s WALL (   33420 calls)
     cegterg:upda :     10.57s CPU     10.51s WALL (   33420 calls)
     cegterg:last :      5.91s CPU      5.86s WALL (   32407 calls)
     h_psi        :    458.86s CPU    433.91s WALL (   56100 calls)
                                      433.04s GPU  (   56100 calls)
     s_psi        :      5.42s CPU     11.34s WALL (   56100 calls)
                                        9.64s GPU  (   56100 calls)
     g_psi        :      0.26s CPU      1.97s WALL (   33420 calls)
                                        1.76s GPU  (   33420 calls)

     Called by h_psi:
     h_psi:calbec :      2.33s CPU     14.43s WALL (   56100 calls)
                                       14.09s GPU  (   56100 calls)
     vloc_psi     :    419.92s CPU    403.22s WALL (   56100 calls)
                                      402.87s GPU  (   56100 calls)
     add_vuspsi   :      4.52s CPU     10.21s WALL (   56100 calls)
                                        9.87s GPU  (   56100 calls)

     General routines
     calbec       :      2.32s CPU      2.30s WALL (   78780 calls)
     fft          :      8.88s CPU      1.83s WALL (    2025 calls)
                                        1.24s GPU  (    1863 calls)
     ffts         :      0.83s CPU      0.19s WALL (     324 calls)
                                        0.04s GPU  (     162 calls)
     fftw         :      2.99s CPU    354.44s WALL (  134880 calls)
                                      353.02s GPU  (  134880 calls)
     interpolate  :     28.39s CPU      2.49s WALL (     162 calls)
     davcio       :      0.30s CPU      2.70s WALL (     578 calls)
 
     Parallel routines

     PAW routines
     PAW_pot      :    606.86s CPU     55.02s WALL (      81 calls)
     PAW_symme    :      0.13s CPU      0.02s WALL (     161 calls)
 
     PWSCF        :  31m42.76s CPU  16m24.64s WALL

 
   This run was terminated on:  18:18:25  23Oct2023            

=------------------------------------------------------------------------------=
   JOB DONE.
=------------------------------------------------------------------------------=
