
     Program PWSCF v.7.2 starts on 23Oct2023 at 18: 3:54 

     This program is part of the open-source Quantum ESPRESSO suite
     for quantum simulation of materials; please cite
         "P. Giannozzi et al., J. Phys.:Condens. Matter 21 395502 (2009);
         "P. Giannozzi et al., J. Phys.:Condens. Matter 29 465901 (2017);
         "P. Giannozzi et al., J. Chem. Phys. 152 154105 (2020);
          URL http://www.quantum-espresso.org", 
     in publications or presentations arising from this work. More details at
     http://www.quantum-espresso.org/quote

     Parallel version (MPI & OpenMP), running on      12 processor cores
     Number of MPI processes:                 1
     Threads/MPI process:                    12

     MPI processes distributed on     1 nodes
     60338 MiB available memory on the printing compute node when the environment starts
 
     Reading input from aiida.in

     Current dimensions of program PWSCF are:
     Max number of different atomic species (ntypx) = 10
     Max number of k-points (npk) =  40000
     Max angular momentum in pseudopotentials (lmaxx) =  4
     Message from routine setup:
     using ibrav=0 with symmetry is DISCOURAGED, use correct ibrav instead
 
     Subspace diagonalization in iterative solution of the eigenvalue problem:
     a serial algorithm will be used

 
     G-vector sticks info
     --------------------
     sticks:   dense  smooth     PW     G-vecs:    dense   smooth      PW
     Sum        3943    1303    379               163281    31283    5029
 
     Using Slab Decomposition
 


     bravais-lattice index     =            0
     lattice parameter (alat)  =       8.5653  a.u.
     unit-cell volume          =     444.3352 (a.u.)^3
     number of atoms/cell      =            4
     number of atomic types    =            3
     number of electrons       =        41.00
     number of Kohn-Sham states=           25
     kinetic-energy cutoff     =      65.0000  Ry
     charge density cutoff     =     780.0000  Ry
     scf convergence threshold =      8.0E-10
     mixing beta               =       0.1000
     number of iterations used =            8  plain     mixing
     Exchange-correlation= PBESOL
                           (   1   4  10   8   0   0   0)

     GPU acceleration is ACTIVE.


     GPU used by master process:

        Device Number: 0
        Device name: Tesla P100-PCIE-16GB
        Compute capability : 60
        Ratio of single to double precision performance  : 2
        Memory Clock Rate (KHz): 715000
        Memory Bus Width (bits): 4096
        Peak Memory Bandwidth (GB/s): 732.16

     celldm(1)=   8.565287  celldm(2)=   0.000000  celldm(3)=   0.000000
     celldm(4)=   0.000000  celldm(5)=   0.000000  celldm(6)=   0.000000

     crystal axes: (cart. coord. in units of alat)
               a(1) = (   0.000000   0.707107   0.707107 )  
               a(2) = (   0.707107   0.000000   0.707107 )  
               a(3) = (   0.707107   0.707107   0.000000 )  

     reciprocal axes: (cart. coord. in units 2 pi/alat)
               b(1) = ( -0.707107  0.707107  0.707107 )  
               b(2) = (  0.707107 -0.707107  0.707107 )  
               b(3) = (  0.707107  0.707107 -0.707107 )  


     PseudoPot. # 1 for Mn read from file:
     ./pseudo/mn_pbesol_v1.5.uspp.F.UPF
     MD5 check sum: 0716d5f563e6e95a34f9080f4c78c109
     Pseudo is Ultrasoft + core correction, Zval = 15.0
     Generated by new atomic code, or converted to UPF format
     Using radial grid of  859 points,  6 beta functions with: 
                l(1) =   0
                l(2) =   0
                l(3) =   1
                l(4) =   1
                l(5) =   2
                l(6) =   2
     Q(r) pseudized with  8 coefficients,  rinner =    0.950   0.950   0.950
                                                       0.950   0.950

     PseudoPot. # 2 for Sc read from file:
     ./pseudo/Sc_ONCV_PBEsol-1.0.upf
     MD5 check sum: 1a9da10301537f29e8fd13e102309a15
     Pseudo is Norm-conserving, Zval = 11.0
     Generated using ONCVPSP code by D. R. Hamann
     Using radial grid of 1642 points,  6 beta functions with: 
                l(1) =   0
                l(2) =   0
                l(3) =   1
                l(4) =   1
                l(5) =   2
                l(6) =   2

     PseudoPot. # 3 for Si read from file:
     ./pseudo/Si.pbesol-n-rrkjus_psl.1.0.0.UPF
     MD5 check sum: c4212819de858c94c3a1644338846ac9
     Pseudo is Ultrasoft + core correction, Zval =  4.0
     Generated using "atomic" code by A. Dal Corso  v.6.0 svn rev. 13079
     Using radial grid of 1141 points,  6 beta functions with: 
                l(1) =   0
                l(2) =   0
                l(3) =   1
                l(4) =   1
                l(5) =   2
                l(6) =   2
     Q(r) pseudized with 0 coefficients 


     atomic species   valence    mass     pseudopotential
        Mn            15.00    54.93805     Mn( 1.00)
        Sc            11.00    44.95591     Sc( 1.00)
        Si             4.00    28.08550     Si( 1.00)

     Starting magnetic structure 
     atomic species   magnetization
        Mn           0.333
        Sc           0.455
        Si           0.100

     48 Sym. Ops., with inversion, found


                                    s                        frac. trans.

      isym =  1     identity                                     

 cryst.   s( 1) = (     1          0          0      )
                  (     0          1          0      )
                  (     0          0          1      )

 cart.    s( 1) = (  1.0000000 -0.0000000  0.0000000 )
                  ( -0.0000000  1.0000000  0.0000000 )
                  ( -0.0000000  0.0000000  1.0000000 )


      isym =  2     180 deg rotation - cart. axis [0,0,1]        

 cryst.   s( 2) = (     0          1         -1      )
                  (     1          0         -1      )
                  (     0          0         -1      )

 cart.    s( 2) = ( -1.0000000  0.0000000  0.0000000 )
                  (  0.0000000 -1.0000000  0.0000000 )
                  (  0.0000000 -0.0000000  1.0000000 )


      isym =  3     180 deg rotation - cart. axis [0,1,0]        

 cryst.   s( 3) = (     0         -1          1      )
                  (     0         -1          0      )
                  (     1         -1          0      )

 cart.    s( 3) = ( -1.0000000 -0.0000000 -0.0000000 )
                  (  0.0000000  1.0000000 -0.0000000 )
                  (  0.0000000  0.0000000 -1.0000000 )


      isym =  4     180 deg rotation - cart. axis [1,0,0]        

 cryst.   s( 4) = (    -1          0          0      )
                  (    -1          0          1      )
                  (    -1          1          0      )

 cart.    s( 4) = (  1.0000000  0.0000000 -0.0000000 )
                  ( -0.0000000 -1.0000000 -0.0000000 )
                  ( -0.0000000 -0.0000000 -1.0000000 )


      isym =  5     180 deg rotation - cart. axis [1,1,0]        

 cryst.   s( 5) = (    -1          0          1      )
                  (     0         -1          1      )
                  (     0          0          1      )

 cart.    s( 5) = ( -0.0000000  1.0000000 -0.0000000 )
                  (  1.0000000 -0.0000000 -0.0000000 )
                  (  0.0000000 -0.0000000 -1.0000000 )


      isym =  6     180 deg rotation - cart. axis [1,-1,0]       

 cryst.   s( 6) = (     0         -1          0      )
                  (    -1          0          0      )
                  (     0          0         -1      )

 cart.    s( 6) = (  0.0000000 -1.0000000 -0.0000000 )
                  ( -1.0000000  0.0000000 -0.0000000 )
                  ( -0.0000000  0.0000000 -1.0000000 )


      isym =  7      90 deg rotation - cart. axis [0,0,-1]       

 cryst.   s( 7) = (     0          1          0      )
                  (     0          1         -1      )
                  (    -1          1          0      )

 cart.    s( 7) = (  0.0000000  1.0000000  0.0000000 )
                  ( -1.0000000 -0.0000000  0.0000000 )
                  ( -0.0000000 -0.0000000  1.0000000 )


      isym =  8      90 deg rotation - cart. axis [0,0,1]        

 cryst.   s( 8) = (     1          0         -1      )
                  (     1          0          0      )
                  (     1         -1          0      )

 cart.    s( 8) = ( -0.0000000 -1.0000000  0.0000000 )
                  (  1.0000000  0.0000000  0.0000000 )
                  (  0.0000000  0.0000000  1.0000000 )


      isym =  9     180 deg rotation - cart. axis [1,0,1]        

 cryst.   s( 9) = (    -1          1          0      )
                  (     0          1          0      )
                  (     0          1         -1      )

 cart.    s( 9) = (  0.0000000  0.0000000  1.0000000 )
                  (  0.0000000 -1.0000000 -0.0000000 )
                  (  1.0000000 -0.0000000 -0.0000000 )


      isym = 10     180 deg rotation - cart. axis [-1,0,1]       

 cryst.   s(10) = (     0          0         -1      )
                  (     0         -1          0      )
                  (    -1          0          0      )

 cart.    s(10) = ( -0.0000000  0.0000000 -1.0000000 )
                  ( -0.0000000 -1.0000000  0.0000000 )
                  ( -1.0000000 -0.0000000  0.0000000 )


      isym = 11      90 deg rotation - cart. axis [0,1,0]        

 cryst.   s(11) = (     0          0          1      )
                  (    -1          0          1      )
                  (     0         -1          1      )

 cart.    s(11) = ( -0.0000000 -0.0000000  1.0000000 )
                  ( -0.0000000  1.0000000 -0.0000000 )
                  ( -1.0000000  0.0000000 -0.0000000 )


      isym = 12      90 deg rotation - cart. axis [0,-1,0]       

 cryst.   s(12) = (     1         -1          0      )
                  (     1          0         -1      )
                  (     1          0          0      )

 cart.    s(12) = (  0.0000000 -0.0000000 -1.0000000 )
                  (  0.0000000  1.0000000  0.0000000 )
                  (  1.0000000  0.0000000  0.0000000 )


      isym = 13     180 deg rotation - cart. axis [0,1,1]        

 cryst.   s(13) = (     1          0          0      )
                  (     1         -1          0      )
                  (     1          0         -1      )

 cart.    s(13) = ( -1.0000000  0.0000000 -0.0000000 )
                  (  0.0000000  0.0000000  1.0000000 )
                  (  0.0000000  1.0000000  0.0000000 )


      isym = 14     180 deg rotation - cart. axis [0,1,-1]       

 cryst.   s(14) = (    -1          0          0      )
                  (     0          0         -1      )
                  (     0         -1          0      )

 cart.    s(14) = ( -1.0000000 -0.0000000  0.0000000 )
                  (  0.0000000 -0.0000000 -1.0000000 )
                  (  0.0000000 -1.0000000 -0.0000000 )


      isym = 15      90 deg rotation - cart. axis [-1,0,0]       

 cryst.   s(15) = (     0         -1          1      )
                  (     0          0          1      )
                  (    -1          0          1      )

 cart.    s(15) = (  1.0000000 -0.0000000 -0.0000000 )
                  ( -0.0000000 -0.0000000  1.0000000 )
                  ( -0.0000000 -1.0000000  0.0000000 )


      isym = 16      90 deg rotation - cart. axis [1,0,0]        

 cryst.   s(16) = (     0          1         -1      )
                  (    -1          1          0      )
                  (     0          1          0      )

 cart.    s(16) = (  1.0000000  0.0000000  0.0000000 )
                  ( -0.0000000  0.0000000 -1.0000000 )
                  ( -0.0000000  1.0000000 -0.0000000 )


      isym = 17     120 deg rotation - cart. axis [-1,-1,-1]     

 cryst.   s(17) = (     0          0          1      )
                  (     1          0          0      )
                  (     0          1          0      )

 cart.    s(17) = (  0.0000000  1.0000000 -0.0000000 )
                  (  0.0000000 -0.0000000  1.0000000 )
                  (  1.0000000 -0.0000000  0.0000000 )


      isym = 18     120 deg rotation - cart. axis [-1,1,1]       

 cryst.   s(18) = (     1         -1          0      )
                  (     0         -1          1      )
                  (     0         -1          0      )

 cart.    s(18) = ( -0.0000000 -1.0000000 -0.0000000 )
                  ( -0.0000000  0.0000000  1.0000000 )
                  ( -1.0000000  0.0000000  0.0000000 )


      isym = 19     120 deg rotation - cart. axis [1,1,-1]       

 cryst.   s(19) = (    -1          1          0      )
                  (    -1          0          0      )
                  (    -1          0          1      )

 cart.    s(19) = ( -0.0000000  1.0000000  0.0000000 )
                  ( -0.0000000 -0.0000000 -1.0000000 )
                  ( -1.0000000 -0.0000000 -0.0000000 )


      isym = 20     120 deg rotation - cart. axis [1,-1,1]       

 cryst.   s(20) = (     0          0         -1      )
                  (     0          1         -1      )
                  (     1          0         -1      )

 cart.    s(20) = (  0.0000000 -1.0000000  0.0000000 )
                  (  0.0000000  0.0000000 -1.0000000 )
                  (  1.0000000  0.0000000 -0.0000000 )


      isym = 21     120 deg rotation - cart. axis [1,1,1]        

 cryst.   s(21) = (     0          1          0      )
                  (     0          0          1      )
                  (     1          0          0      )

 cart.    s(21) = ( -0.0000000  0.0000000  1.0000000 )
                  (  1.0000000  0.0000000 -0.0000000 )
                  (  0.0000000  1.0000000 -0.0000000 )


      isym = 22     120 deg rotation - cart. axis [-1,1,-1]      

 cryst.   s(22) = (    -1          0          1      )
                  (    -1          1          0      )
                  (    -1          0          0      )

 cart.    s(22) = (  0.0000000 -0.0000000  1.0000000 )
                  ( -1.0000000 -0.0000000 -0.0000000 )
                  ( -0.0000000 -1.0000000 -0.0000000 )


      isym = 23     120 deg rotation - cart. axis [1,-1,-1]      

 cryst.   s(23) = (     1          0         -1      )
                  (     0          0         -1      )
                  (     0          1         -1      )

 cart.    s(23) = (  0.0000000  0.0000000 -1.0000000 )
                  ( -1.0000000  0.0000000  0.0000000 )
                  ( -0.0000000  1.0000000  0.0000000 )


      isym = 24     120 deg rotation - cart. axis [-1,-1,1]      

 cryst.   s(24) = (     0         -1          0      )
                  (     1         -1          0      )
                  (     0         -1          1      )

 cart.    s(24) = ( -0.0000000 -0.0000000 -1.0000000 )
                  (  1.0000000 -0.0000000  0.0000000 )
                  (  0.0000000 -1.0000000  0.0000000 )


      isym = 25     inversion                                    

 cryst.   s(25) = (    -1          0          0      )
                  (     0         -1          0      )
                  (     0          0         -1      )

 cart.    s(25) = ( -1.0000000  0.0000000 -0.0000000 )
                  (  0.0000000 -1.0000000 -0.0000000 )
                  (  0.0000000 -0.0000000 -1.0000000 )


      isym = 26     inv. 180 deg rotation - cart. axis [0,0,1]   

 cryst.   s(26) = (     0         -1          1      )
                  (    -1          0          1      )
                  (     0          0          1      )

 cart.    s(26) = (  1.0000000 -0.0000000 -0.0000000 )
                  ( -0.0000000  1.0000000 -0.0000000 )
                  ( -0.0000000  0.0000000 -1.0000000 )


      isym = 27     inv. 180 deg rotation - cart. axis [0,1,0]   

 cryst.   s(27) = (     0          1         -1      )
                  (     0          1          0      )
                  (    -1          1          0      )

 cart.    s(27) = (  1.0000000  0.0000000  0.0000000 )
                  ( -0.0000000 -1.0000000  0.0000000 )
                  ( -0.0000000 -0.0000000  1.0000000 )


      isym = 28     inv. 180 deg rotation - cart. axis [1,0,0]   

 cryst.   s(28) = (     1          0          0      )
                  (     1          0         -1      )
                  (     1         -1          0      )

 cart.    s(28) = ( -1.0000000 -0.0000000  0.0000000 )
                  (  0.0000000  1.0000000  0.0000000 )
                  (  0.0000000  0.0000000  1.0000000 )


      isym = 29     inv. 180 deg rotation - cart. axis [1,1,0]   

 cryst.   s(29) = (     1          0         -1      )
                  (     0          1         -1      )
                  (     0          0         -1      )

 cart.    s(29) = (  0.0000000 -1.0000000  0.0000000 )
                  ( -1.0000000  0.0000000  0.0000000 )
                  ( -0.0000000  0.0000000  1.0000000 )


      isym = 30     inv. 180 deg rotation - cart. axis [1,-1,0]  

 cryst.   s(30) = (     0          1          0      )
                  (     1          0          0      )
                  (     0          0          1      )

 cart.    s(30) = ( -0.0000000  1.0000000  0.0000000 )
                  (  1.0000000 -0.0000000  0.0000000 )
                  (  0.0000000 -0.0000000  1.0000000 )


      isym = 31     inv.  90 deg rotation - cart. axis [0,0,-1]  

 cryst.   s(31) = (     0         -1          0      )
                  (     0         -1          1      )
                  (     1         -1          0      )

 cart.    s(31) = ( -0.0000000 -1.0000000 -0.0000000 )
                  (  1.0000000  0.0000000 -0.0000000 )
                  (  0.0000000  0.0000000 -1.0000000 )


      isym = 32     inv.  90 deg rotation - cart. axis [0,0,1]   

 cryst.   s(32) = (    -1          0          1      )
                  (    -1          0          0      )
                  (    -1          1          0      )

 cart.    s(32) = (  0.0000000  1.0000000 -0.0000000 )
                  ( -1.0000000 -0.0000000 -0.0000000 )
                  ( -0.0000000 -0.0000000 -1.0000000 )


      isym = 33     inv. 180 deg rotation - cart. axis [1,0,1]   

 cryst.   s(33) = (     1         -1          0      )
                  (     0         -1          0      )
                  (     0         -1          1      )

 cart.    s(33) = ( -0.0000000 -0.0000000 -1.0000000 )
                  ( -0.0000000  1.0000000  0.0000000 )
                  ( -1.0000000  0.0000000  0.0000000 )


      isym = 34     inv. 180 deg rotation - cart. axis [-1,0,1]  

 cryst.   s(34) = (     0          0          1      )
                  (     0          1          0      )
                  (     1          0          0      )

 cart.    s(34) = (  0.0000000 -0.0000000  1.0000000 )
                  (  0.0000000  1.0000000 -0.0000000 )
                  (  1.0000000  0.0000000 -0.0000000 )


      isym = 35     inv.  90 deg rotation - cart. axis [0,1,0]   

 cryst.   s(35) = (     0          0         -1      )
                  (     1          0         -1      )
                  (     0          1         -1      )

 cart.    s(35) = (  0.0000000  0.0000000 -1.0000000 )
                  (  0.0000000 -1.0000000  0.0000000 )
                  (  1.0000000 -0.0000000  0.0000000 )


      isym = 36     inv.  90 deg rotation - cart. axis [0,-1,0]  

 cryst.   s(36) = (    -1          1          0      )
                  (    -1          0          1      )
                  (    -1          0          0      )

 cart.    s(36) = ( -0.0000000  0.0000000  1.0000000 )
                  ( -0.0000000 -1.0000000 -0.0000000 )
                  ( -1.0000000 -0.0000000 -0.0000000 )


      isym = 37     inv. 180 deg rotation - cart. axis [0,1,1]   

 cryst.   s(37) = (    -1          0          0      )
                  (    -1          1          0      )
                  (    -1          0          1      )

 cart.    s(37) = (  1.0000000 -0.0000000  0.0000000 )
                  ( -0.0000000 -0.0000000 -1.0000000 )
                  ( -0.0000000 -1.0000000 -0.0000000 )


      isym = 38     inv. 180 deg rotation - cart. axis [0,1,-1]  

 cryst.   s(38) = (     1          0          0      )
                  (     0          0          1      )
                  (     0          1          0      )

 cart.    s(38) = (  1.0000000  0.0000000 -0.0000000 )
                  ( -0.0000000  0.0000000  1.0000000 )
                  ( -0.0000000  1.0000000  0.0000000 )


      isym = 39     inv.  90 deg rotation - cart. axis [-1,0,0]  

 cryst.   s(39) = (     0          1         -1      )
                  (     0          0         -1      )
                  (     1          0         -1      )

 cart.    s(39) = ( -1.0000000  0.0000000  0.0000000 )
                  (  0.0000000  0.0000000 -1.0000000 )
                  (  0.0000000  1.0000000 -0.0000000 )


      isym = 40     inv.  90 deg rotation - cart. axis [1,0,0]   

 cryst.   s(40) = (     0         -1          1      )
                  (     1         -1          0      )
                  (     0         -1          0      )

 cart.    s(40) = ( -1.0000000 -0.0000000 -0.0000000 )
                  (  0.0000000 -0.0000000  1.0000000 )
                  (  0.0000000 -1.0000000  0.0000000 )


      isym = 41     inv. 120 deg rotation - cart. axis [-1,-1,-1]

 cryst.   s(41) = (     0          0         -1      )
                  (    -1          0          0      )
                  (     0         -1          0      )

 cart.    s(41) = ( -0.0000000 -1.0000000  0.0000000 )
                  ( -0.0000000  0.0000000 -1.0000000 )
                  ( -1.0000000  0.0000000 -0.0000000 )


      isym = 42     inv. 120 deg rotation - cart. axis [-1,1,1]  

 cryst.   s(42) = (    -1          1          0      )
                  (     0          1         -1      )
                  (     0          1          0      )

 cart.    s(42) = (  0.0000000  1.0000000  0.0000000 )
                  (  0.0000000 -0.0000000 -1.0000000 )
                  (  1.0000000 -0.0000000 -0.0000000 )


      isym = 43     inv. 120 deg rotation - cart. axis [1,1,-1]  

 cryst.   s(43) = (     1         -1          0      )
                  (     1          0          0      )
                  (     1          0         -1      )

 cart.    s(43) = (  0.0000000 -1.0000000 -0.0000000 )
                  (  0.0000000  0.0000000  1.0000000 )
                  (  1.0000000  0.0000000  0.0000000 )


      isym = 44     inv. 120 deg rotation - cart. axis [1,-1,1]  

 cryst.   s(44) = (     0          0          1      )
                  (     0         -1          1      )
                  (    -1          0          1      )

 cart.    s(44) = ( -0.0000000  1.0000000 -0.0000000 )
                  ( -0.0000000 -0.0000000  1.0000000 )
                  ( -1.0000000 -0.0000000  0.0000000 )


      isym = 45     inv. 120 deg rotation - cart. axis [1,1,1]   

 cryst.   s(45) = (     0         -1          0      )
                  (     0          0         -1      )
                  (    -1          0          0      )

 cart.    s(45) = (  0.0000000 -0.0000000 -1.0000000 )
                  ( -1.0000000 -0.0000000  0.0000000 )
                  ( -0.0000000 -1.0000000  0.0000000 )


      isym = 46     inv. 120 deg rotation - cart. axis [-1,1,-1] 

 cryst.   s(46) = (     1          0         -1      )
                  (     1         -1          0      )
                  (     1          0          0      )

 cart.    s(46) = ( -0.0000000  0.0000000 -1.0000000 )
                  (  1.0000000  0.0000000  0.0000000 )
                  (  0.0000000  1.0000000  0.0000000 )


      isym = 47     inv. 120 deg rotation - cart. axis [1,-1,-1] 

 cryst.   s(47) = (    -1          0          1      )
                  (     0          0          1      )
                  (     0         -1          1      )

 cart.    s(47) = ( -0.0000000 -0.0000000  1.0000000 )
                  (  1.0000000 -0.0000000 -0.0000000 )
                  (  0.0000000 -1.0000000 -0.0000000 )


      isym = 48     inv. 120 deg rotation - cart. axis [-1,-1,1] 

 cryst.   s(48) = (     0          1          0      )
                  (    -1          1          0      )
                  (     0          1         -1      )

 cart.    s(48) = (  0.0000000  0.0000000  1.0000000 )
                  ( -1.0000000  0.0000000 -0.0000000 )
                  ( -0.0000000  1.0000000 -0.0000000 )


   Cartesian axes

     site n.     atom                  positions (alat units)
         1           Sc  tau(   1) = (   0.3535534   0.3535534   1.0606602  )
         2           Sc  tau(   2) = (   0.3535534   1.0606602   1.0606602  )
         3           Mn  tau(   3) = (   0.7071068   0.0000000   0.0000000  )
         4           Si  tau(   4) = (   0.0000000   0.0000000   0.0000000  )

   Crystallographic axes

     site n.     atom                  positions (cryst. coord.)
         1           Sc  tau(   1) = (  0.7500000  0.7500000 -0.2500000  )
         2           Sc  tau(   2) = (  1.2500000  0.2500000  0.2500000  )
         3           Mn  tau(   3) = ( -0.5000000  0.5000000  0.5000000  )
         4           Si  tau(   4) = (  0.0000000  0.0000000  0.0000000  )

     number of k points=    72  Marzari-Vanderbilt smearing, width (Ry)=  0.0100
                       cart. coord. in units 2pi/alat
        k(    1) = (   0.0000000   0.0000000   0.0000000), wk =   0.0005787
        k(    2) = (   0.0589256   0.0589256  -0.0589256), wk =   0.0046296
        k(    3) = (   0.1178511   0.1178511  -0.1178511), wk =   0.0046296
        k(    4) = (   0.1767767   0.1767767  -0.1767767), wk =   0.0046296
        k(    5) = (   0.2357023   0.2357023  -0.2357023), wk =   0.0046296
        k(    6) = (   0.2946278   0.2946278  -0.2946278), wk =   0.0046296
        k(    7) = (  -0.3535534  -0.3535534   0.3535534), wk =   0.0023148
        k(    8) = (   0.1178511   0.0000000  -0.0000000), wk =   0.0034722
        k(    9) = (   0.1767767   0.0589256  -0.0589256), wk =   0.0138889
        k(   10) = (   0.2357023   0.1178511  -0.1178511), wk =   0.0138889
        k(   11) = (   0.2946278   0.1767767  -0.1767767), wk =   0.0138889
        k(   12) = (   0.3535534   0.2357023  -0.2357023), wk =   0.0138889
        k(   13) = (  -0.2946278  -0.4124790   0.4124790), wk =   0.0138889
        k(   14) = (  -0.2357023  -0.3535534   0.3535534), wk =   0.0138889
        k(   15) = (  -0.1767767  -0.2946278   0.2946278), wk =   0.0138889
        k(   16) = (  -0.1178511  -0.2357023   0.2357023), wk =   0.0138889
        k(   17) = (  -0.0589256  -0.1767767   0.1767767), wk =   0.0138889
        k(   18) = (  -0.0000000  -0.1178511   0.1178511), wk =   0.0069444
        k(   19) = (   0.2357023   0.0000000  -0.0000000), wk =   0.0034722
        k(   20) = (   0.2946278   0.0589256  -0.0589256), wk =   0.0138889
        k(   21) = (   0.3535534   0.1178511  -0.1178511), wk =   0.0138889
        k(   22) = (   0.4124790   0.1767767  -0.1767767), wk =   0.0138889
        k(   23) = (  -0.2357023  -0.4714045   0.4714045), wk =   0.0138889
        k(   24) = (  -0.1767767  -0.4124790   0.4124790), wk =   0.0138889
        k(   25) = (  -0.1178511  -0.3535534   0.3535534), wk =   0.0138889
        k(   26) = (  -0.0589256  -0.2946278   0.2946278), wk =   0.0138889
        k(   27) = (   0.0000000  -0.2357023   0.2357023), wk =   0.0069444
        k(   28) = (   0.3535534   0.0000000   0.0000000), wk =   0.0034722
        k(   29) = (   0.4124790   0.0589256  -0.0589256), wk =   0.0138889
        k(   30) = (   0.4714045   0.1178511  -0.1178511), wk =   0.0138889
        k(   31) = (  -0.1767767  -0.5303301   0.5303301), wk =   0.0138889
        k(   32) = (  -0.1178511  -0.4714045   0.4714045), wk =   0.0138889
        k(   33) = (  -0.0589256  -0.4124790   0.4124790), wk =   0.0138889
        k(   34) = (   0.0000000  -0.3535534   0.3535534), wk =   0.0069444
        k(   35) = (   0.4714045   0.0000000  -0.0000000), wk =   0.0034722
        k(   36) = (   0.5303301   0.0589256  -0.0589256), wk =   0.0138889
        k(   37) = (  -0.1178511  -0.5892557   0.5892557), wk =   0.0138889
        k(   38) = (  -0.0589256  -0.5303301   0.5303301), wk =   0.0138889
        k(   39) = (  -0.0000000  -0.4714045   0.4714045), wk =   0.0069444
        k(   40) = (   0.5892557   0.0000000  -0.0000000), wk =   0.0034722
        k(   41) = (  -0.0589256  -0.6481812   0.6481812), wk =   0.0138889
        k(   42) = (   0.0000000  -0.5892557   0.5892557), wk =   0.0069444
        k(   43) = (  -0.7071068   0.0000000   0.0000000), wk =   0.0017361
        k(   44) = (   0.2357023   0.1178511   0.0000000), wk =   0.0138889
        k(   45) = (   0.2946278   0.1767767  -0.0589256), wk =   0.0277778
        k(   46) = (   0.3535534   0.2357023  -0.1178511), wk =   0.0277778
        k(   47) = (  -0.2946278  -0.4124790   0.5303301), wk =   0.0277778
        k(   48) = (  -0.2357023  -0.3535534   0.4714045), wk =   0.0138889
        k(   49) = (   0.3535534   0.1178511  -0.0000000), wk =   0.0138889
        k(   50) = (   0.4124790   0.1767767  -0.0589256), wk =   0.0277778
        k(   51) = (  -0.2357023  -0.4714045   0.5892557), wk =   0.0277778
        k(   52) = (  -0.1767767  -0.4124790   0.5303301), wk =   0.0277778
        k(   53) = (  -0.1178511  -0.3535534   0.4714045), wk =   0.0277778
        k(   54) = (  -0.0589256  -0.2946278   0.4124790), wk =   0.0277778
        k(   55) = (   0.0000000  -0.2357023   0.3535534), wk =   0.0138889
        k(   56) = (   0.4714045   0.1178511  -0.0000000), wk =   0.0138889
        k(   57) = (  -0.1767767  -0.5303301   0.6481812), wk =   0.0277778
        k(   58) = (  -0.1178511  -0.4714045   0.5892557), wk =   0.0277778
        k(   59) = (  -0.0589256  -0.4124790   0.5303301), wk =   0.0277778
        k(   60) = (   0.0000000  -0.3535534   0.4714045), wk =   0.0138889
        k(   61) = (  -0.1178511  -0.5892557   0.7071068), wk =   0.0138889
        k(   62) = (  -0.0589256  -0.5303301   0.6481812), wk =   0.0277778
        k(   63) = (  -0.0000000  -0.4714045   0.5892557), wk =   0.0138889
        k(   64) = (  -0.7071068   0.1178511  -0.0000000), wk =   0.0069444
        k(   65) = (  -0.2357023  -0.4714045   0.7071068), wk =   0.0138889
        k(   66) = (  -0.1767767  -0.4124790   0.6481812), wk =   0.0277778
        k(   67) = (  -0.1178511  -0.3535534   0.5892557), wk =   0.0138889
        k(   68) = (  -0.1178511  -0.4714045   0.7071068), wk =   0.0138889
        k(   69) = (  -0.0589256  -0.4124790   0.6481812), wk =   0.0277778
        k(   70) = (   0.0000000  -0.3535534   0.5892557), wk =   0.0138889
        k(   71) = (  -0.7071068   0.2357023   0.0000000), wk =   0.0069444
        k(   72) = (  -0.7071068   0.3535534   0.0000000), wk =   0.0034722

                       cryst. coord.
        k(    1) = (   0.0000000   0.0000000   0.0000000), wk =   0.0005787
        k(    2) = (   0.0000000   0.0000000   0.0833333), wk =   0.0046296
        k(    3) = (   0.0000000   0.0000000   0.1666667), wk =   0.0046296
        k(    4) = (   0.0000000   0.0000000   0.2500000), wk =   0.0046296
        k(    5) = (   0.0000000   0.0000000   0.3333333), wk =   0.0046296
        k(    6) = (  -0.0000000  -0.0000000   0.4166667), wk =   0.0046296
        k(    7) = (  -0.0000000  -0.0000000  -0.5000000), wk =   0.0023148
        k(    8) = (  -0.0000000   0.0833333   0.0833333), wk =   0.0034722
        k(    9) = (   0.0000000   0.0833333   0.1666667), wk =   0.0138889
        k(   10) = (  -0.0000000   0.0833333   0.2500000), wk =   0.0138889
        k(   11) = (   0.0000000   0.0833333   0.3333333), wk =   0.0138889
        k(   12) = (  -0.0000000   0.0833333   0.4166667), wk =   0.0138889
        k(   13) = (  -0.0000000   0.0833333  -0.5000000), wk =   0.0138889
        k(   14) = (   0.0000000   0.0833333  -0.4166667), wk =   0.0138889
        k(   15) = (  -0.0000000   0.0833333  -0.3333333), wk =   0.0138889
        k(   16) = (  -0.0000000   0.0833333  -0.2500000), wk =   0.0138889
        k(   17) = (   0.0000000   0.0833333  -0.1666667), wk =   0.0138889
        k(   18) = (   0.0000000   0.0833333  -0.0833333), wk =   0.0069444
        k(   19) = (  -0.0000000   0.1666667   0.1666667), wk =   0.0034722
        k(   20) = (  -0.0000000   0.1666667   0.2500000), wk =   0.0138889
        k(   21) = (   0.0000000   0.1666667   0.3333333), wk =   0.0138889
        k(   22) = (   0.0000000   0.1666667   0.4166667), wk =   0.0138889
        k(   23) = (  -0.0000000   0.1666667  -0.5000000), wk =   0.0138889
        k(   24) = (  -0.0000000   0.1666667  -0.4166667), wk =   0.0138889
        k(   25) = (  -0.0000000   0.1666667  -0.3333333), wk =   0.0138889
        k(   26) = (   0.0000000   0.1666667  -0.2500000), wk =   0.0138889
        k(   27) = (   0.0000000   0.1666667  -0.1666667), wk =   0.0069444
        k(   28) = (   0.0000000   0.2500000   0.2500000), wk =   0.0034722
        k(   29) = (  -0.0000000   0.2500000   0.3333333), wk =   0.0138889
        k(   30) = (  -0.0000000   0.2500000   0.4166667), wk =   0.0138889
        k(   31) = (   0.0000000   0.2500000  -0.5000000), wk =   0.0138889
        k(   32) = (  -0.0000000   0.2500000  -0.4166667), wk =   0.0138889
        k(   33) = (  -0.0000000   0.2500000  -0.3333333), wk =   0.0138889
        k(   34) = (  -0.0000000   0.2500000  -0.2500000), wk =   0.0069444
        k(   35) = (  -0.0000000   0.3333333   0.3333333), wk =   0.0034722
        k(   36) = (  -0.0000000   0.3333333   0.4166667), wk =   0.0138889
        k(   37) = (   0.0000000   0.3333333  -0.5000000), wk =   0.0138889
        k(   38) = (  -0.0000000   0.3333333  -0.4166667), wk =   0.0138889
        k(   39) = (   0.0000000   0.3333333  -0.3333333), wk =   0.0069444
        k(   40) = (   0.0000000   0.4166667   0.4166667), wk =   0.0034722
        k(   41) = (   0.0000000   0.4166667  -0.5000000), wk =   0.0138889
        k(   42) = (   0.0000000   0.4166667  -0.4166667), wk =   0.0069444
        k(   43) = (   0.0000000  -0.5000000  -0.5000000), wk =   0.0017361
        k(   44) = (   0.0833333   0.1666667   0.2500000), wk =   0.0138889
        k(   45) = (   0.0833333   0.1666667   0.3333333), wk =   0.0277778
        k(   46) = (   0.0833333   0.1666667   0.4166667), wk =   0.0277778
        k(   47) = (   0.0833333   0.1666667  -0.5000000), wk =   0.0277778
        k(   48) = (   0.0833333   0.1666667  -0.4166667), wk =   0.0138889
        k(   49) = (   0.0833333   0.2500000   0.3333333), wk =   0.0138889
        k(   50) = (   0.0833333   0.2500000   0.4166667), wk =   0.0277778
        k(   51) = (   0.0833333   0.2500000  -0.5000000), wk =   0.0277778
        k(   52) = (   0.0833333   0.2500000  -0.4166667), wk =   0.0277778
        k(   53) = (   0.0833333   0.2500000  -0.3333333), wk =   0.0277778
        k(   54) = (   0.0833333   0.2500000  -0.2500000), wk =   0.0277778
        k(   55) = (   0.0833333   0.2500000  -0.1666667), wk =   0.0138889
        k(   56) = (   0.0833333   0.3333333   0.4166667), wk =   0.0138889
        k(   57) = (   0.0833333   0.3333333  -0.5000000), wk =   0.0277778
        k(   58) = (   0.0833333   0.3333333  -0.4166667), wk =   0.0277778
        k(   59) = (   0.0833333   0.3333333  -0.3333333), wk =   0.0277778
        k(   60) = (   0.0833333   0.3333333  -0.2500000), wk =   0.0138889
        k(   61) = (   0.0833333   0.4166667  -0.5000000), wk =   0.0138889
        k(   62) = (   0.0833333   0.4166667  -0.4166667), wk =   0.0277778
        k(   63) = (   0.0833333   0.4166667  -0.3333333), wk =   0.0138889
        k(   64) = (   0.0833333  -0.5000000  -0.4166667), wk =   0.0069444
        k(   65) = (   0.1666667   0.3333333  -0.5000000), wk =   0.0138889
        k(   66) = (   0.1666667   0.3333333  -0.4166667), wk =   0.0277778
        k(   67) = (   0.1666667   0.3333333  -0.3333333), wk =   0.0138889
        k(   68) = (   0.1666667   0.4166667  -0.4166667), wk =   0.0138889
        k(   69) = (   0.1666667   0.4166667  -0.3333333), wk =   0.0277778
        k(   70) = (   0.1666667   0.4166667  -0.2500000), wk =   0.0138889
        k(   71) = (   0.1666667  -0.5000000  -0.3333333), wk =   0.0069444
        k(   72) = (   0.2500000  -0.5000000  -0.2500000), wk =   0.0034722

     Dense  grid:   163281 G-vectors     FFT dimensions: (  80,  80,  80)

     Smooth grid:    31283 G-vectors     FFT dimensions: (  45,  45,  45)

     Dynamical RAM for                 wfc:       1.50 MB

     Dynamical RAM for     wfc (w. buffer):     217.49 MB

     Dynamical RAM for           str. fact:       7.47 MB

     Dynamical RAM for           local pot:       0.00 MB

     Dynamical RAM for          nlocal pot:       4.32 MB

     Dynamical RAM for                qrad:       6.72 MB

     Dynamical RAM for          rho,v,vnew:      38.39 MB

     Dynamical RAM for               rhoin:      12.80 MB

     Dynamical RAM for            rho*nmix:      79.73 MB

     Dynamical RAM for           G-vectors:       9.58 MB

     Dynamical RAM for          h,s,v(r/c):       0.11 MB

     Dynamical RAM for          <psi|beta>:       0.03 MB

     Dynamical RAM for                 psi:       3.00 MB

     Dynamical RAM for                hpsi:       3.00 MB

     Dynamical RAM for                spsi:       3.00 MB

     Dynamical RAM for      wfcinit/wfcrot:       3.01 MB

     Dynamical RAM for           addusdens:     468.40 MB

     Dynamical RAM for          addusforce:     468.40 MB

     Dynamical RAM for         addusstress:     504.52 MB

     Estimated static dynamical RAM per process >     330.17 MB

     Estimated max dynamical RAM per process >     914.42 MB

     Atomic positions and unit cell read from directory:
     ./out/aiida.save/
 

     Check: negative core charge=   -0.000007
     Generating pointlists ...
     new r_m :   0.2526 (alat units)  2.1636 (a.u.) for type    1
     new r_m :   0.2526 (alat units)  2.1636 (a.u.) for type    2
     new r_m :   0.2526 (alat units)  2.1636 (a.u.) for type    3

     The initial density is read from file :
     ./out/aiida.save/charge-density

     Starting wfcs from file

     total cpu time spent up to now is        2.9 secs

     per-process dynamical memory:   483.8 Mb

     Self-consistent Calculation
[tb_dev] Currently allocated     3.05E-05 Mbytes, locked:    0 /   2
[tb_pin] Currently allocated     0.00E+00 Mbytes, locked:    0 /   0

     iteration #  1     ecut=    65.00 Ry     beta= 0.10
     Davidson diagonalization with overlap

---- Real-time Memory Report at c_bands before calling an iterative solver
           616 MiB given to the printing process from OS
           483 MiB allocation reported by mallinfo(arena+hblkhd)
         59619 MiB available memory on the node where the printing process lives
     GPU memory used/free/total (MiB): 754 / 15526 / 16280
------------------
     c_bands:  1 eigenvalues not converged
     c_bands:  1 eigenvalues not converged
     ethr =  1.00E-05,  avg # of iterations =  6.5

     Threshold (ethr) on eigenvalues was too large:
     Diagonalizing with lowered threshold

     Davidson diagonalization with overlap

---- Real-time Memory Report at c_bands before calling an iterative solver
          1183 MiB given to the printing process from OS
          1002 MiB allocation reported by mallinfo(arena+hblkhd)
         58444 MiB available memory on the node where the printing process lives
     GPU memory used/free/total (MiB): 1576 / 14704 / 16280
------------------
     ethr =  3.39E-07,  avg # of iterations =  5.6

     total cpu time spent up to now is       13.0 secs

     total energy              =    -406.10384557 Ry
     estimated scf accuracy    <       0.00023522 Ry

     total magnetization       =     1.34 Bohr mag/cell
     absolute magnetization    =     2.45 Bohr mag/cell
[tb_dev] Currently allocated     7.03E+00 Mbytes, locked:    0 /  18
[tb_pin] Currently allocated     0.00E+00 Mbytes, locked:    0 /   0

     iteration #  2     ecut=    65.00 Ry     beta= 0.10
     Davidson diagonalization with overlap

---- Real-time Memory Report at c_bands before calling an iterative solver
          1215 MiB given to the printing process from OS
          1022 MiB allocation reported by mallinfo(arena+hblkhd)
         58434 MiB available memory on the node where the printing process lives
     GPU memory used/free/total (MiB): 1580 / 14700 / 16280
------------------
     ethr =  5.74E-07,  avg # of iterations =  2.1

     total cpu time spent up to now is       15.7 secs

     total energy              =    -406.10387115 Ry
     estimated scf accuracy    <       0.00008445 Ry

     total magnetization       =     1.33 Bohr mag/cell
     absolute magnetization    =     2.43 Bohr mag/cell
[tb_dev] Currently allocated     7.03E+00 Mbytes, locked:    0 /  18
[tb_pin] Currently allocated     0.00E+00 Mbytes, locked:    0 /   0

     iteration #  3     ecut=    65.00 Ry     beta= 0.10
     Davidson diagonalization with overlap

---- Real-time Memory Report at c_bands before calling an iterative solver
          1219 MiB given to the printing process from OS
          1025 MiB allocation reported by mallinfo(arena+hblkhd)
         58431 MiB available memory on the node where the printing process lives
     GPU memory used/free/total (MiB): 1580 / 14700 / 16280
------------------
     ethr =  2.06E-07,  avg # of iterations =  1.6

     total cpu time spent up to now is       18.2 secs

     total energy              =    -406.10388198 Ry
     estimated scf accuracy    <       0.00005062 Ry

     total magnetization       =     1.33 Bohr mag/cell
     absolute magnetization    =     2.43 Bohr mag/cell
[tb_dev] Currently allocated     7.03E+00 Mbytes, locked:    0 /  18
[tb_pin] Currently allocated     0.00E+00 Mbytes, locked:    0 /   0

     iteration #  4     ecut=    65.00 Ry     beta= 0.10
     Davidson diagonalization with overlap

---- Real-time Memory Report at c_bands before calling an iterative solver
          1222 MiB given to the printing process from OS
          1027 MiB allocation reported by mallinfo(arena+hblkhd)
         58430 MiB available memory on the node where the printing process lives
     GPU memory used/free/total (MiB): 1580 / 14700 / 16280
------------------
     ethr =  1.23E-07,  avg # of iterations =  1.9

     total cpu time spent up to now is       20.8 secs

     total energy              =    -406.10390834 Ry
     estimated scf accuracy    <       0.00004515 Ry

     total magnetization       =     1.32 Bohr mag/cell
     absolute magnetization    =     2.42 Bohr mag/cell
[tb_dev] Currently allocated     7.03E+00 Mbytes, locked:    0 /  18
[tb_pin] Currently allocated     0.00E+00 Mbytes, locked:    0 /   0

     iteration #  5     ecut=    65.00 Ry     beta= 0.10
     Davidson diagonalization with overlap

---- Real-time Memory Report at c_bands before calling an iterative solver
          1224 MiB given to the printing process from OS
          1029 MiB allocation reported by mallinfo(arena+hblkhd)
         58429 MiB available memory on the node where the printing process lives
     GPU memory used/free/total (MiB): 1580 / 14700 / 16280
------------------
     ethr =  1.10E-07,  avg # of iterations =  5.4

     total cpu time spent up to now is       25.2 secs

     total energy              =    -406.10397590 Ry
     estimated scf accuracy    <       0.00074583 Ry

     total magnetization       =     1.30 Bohr mag/cell
     absolute magnetization    =     2.39 Bohr mag/cell
[tb_dev] Currently allocated     7.03E+00 Mbytes, locked:    0 /  18
[tb_pin] Currently allocated     0.00E+00 Mbytes, locked:    0 /   0

     iteration #  6     ecut=    65.00 Ry     beta= 0.10
     Davidson diagonalization with overlap

---- Real-time Memory Report at c_bands before calling an iterative solver
          1226 MiB given to the printing process from OS
          1031 MiB allocation reported by mallinfo(arena+hblkhd)
         58427 MiB available memory on the node where the printing process lives
     GPU memory used/free/total (MiB): 1580 / 14700 / 16280
------------------
     ethr =  1.10E-07,  avg # of iterations =  2.2

     total cpu time spent up to now is       27.9 secs

     total energy              =    -406.10366601 Ry
     estimated scf accuracy    <       0.00059036 Ry

     total magnetization       =     1.28 Bohr mag/cell
     absolute magnetization    =     2.36 Bohr mag/cell
[tb_dev] Currently allocated     7.03E+00 Mbytes, locked:    0 /  18
[tb_pin] Currently allocated     0.00E+00 Mbytes, locked:    0 /   0

     iteration #  7     ecut=    65.00 Ry     beta= 0.10
     Davidson diagonalization with overlap

---- Real-time Memory Report at c_bands before calling an iterative solver
          1228 MiB given to the printing process from OS
          1034 MiB allocation reported by mallinfo(arena+hblkhd)
         58424 MiB available memory on the node where the printing process lives
     GPU memory used/free/total (MiB): 1580 / 14700 / 16280
------------------
     ethr =  1.10E-07,  avg # of iterations =  8.1

     total cpu time spent up to now is       33.7 secs

     total energy              =    -406.10302690 Ry
     estimated scf accuracy    <       0.00016261 Ry

     total magnetization       =     1.14 Bohr mag/cell
     absolute magnetization    =     2.15 Bohr mag/cell
[tb_dev] Currently allocated     7.03E+00 Mbytes, locked:    0 /  18
[tb_pin] Currently allocated     0.00E+00 Mbytes, locked:    0 /   0

     iteration #  8     ecut=    65.00 Ry     beta= 0.10
     Davidson diagonalization with overlap

---- Real-time Memory Report at c_bands before calling an iterative solver
          1231 MiB given to the printing process from OS
          1035 MiB allocation reported by mallinfo(arena+hblkhd)
         58423 MiB available memory on the node where the printing process lives
     GPU memory used/free/total (MiB): 1580 / 14700 / 16280
------------------
     ethr =  1.10E-07,  avg # of iterations =  8.8

     total cpu time spent up to now is       40.1 secs

     total energy              =    -406.10391609 Ry
     estimated scf accuracy    <       0.00007405 Ry

     total magnetization       =     1.32 Bohr mag/cell
     absolute magnetization    =     2.42 Bohr mag/cell
[tb_dev] Currently allocated     7.03E+00 Mbytes, locked:    0 /  18
[tb_pin] Currently allocated     0.00E+00 Mbytes, locked:    0 /   0

     iteration #  9     ecut=    65.00 Ry     beta= 0.10
     Davidson diagonalization with overlap

---- Real-time Memory Report at c_bands before calling an iterative solver
          1232 MiB given to the printing process from OS
          1037 MiB allocation reported by mallinfo(arena+hblkhd)
         58422 MiB available memory on the node where the printing process lives
     GPU memory used/free/total (MiB): 1580 / 14700 / 16280
------------------
     ethr =  1.10E-07,  avg # of iterations =  3.4

     total cpu time spent up to now is       43.3 secs

     total energy              =    -406.10383367 Ry
     estimated scf accuracy    <       0.00011024 Ry

     total magnetization       =     1.30 Bohr mag/cell
     absolute magnetization    =     2.38 Bohr mag/cell
[tb_dev] Currently allocated     7.03E+00 Mbytes, locked:    0 /  18
[tb_pin] Currently allocated     0.00E+00 Mbytes, locked:    0 /   0

     iteration # 10     ecut=    65.00 Ry     beta= 0.10
     Davidson diagonalization with overlap

---- Real-time Memory Report at c_bands before calling an iterative solver
          1236 MiB given to the printing process from OS
          1041 MiB allocation reported by mallinfo(arena+hblkhd)
         58417 MiB available memory on the node where the printing process lives
     GPU memory used/free/total (MiB): 1580 / 14700 / 16280
------------------
     ethr =  1.10E-07,  avg # of iterations =  3.9

     total cpu time spent up to now is       46.8 secs

     total energy              =    -406.09899440 Ry
     estimated scf accuracy    <       0.00008066 Ry

     total magnetization       =     1.33 Bohr mag/cell
     absolute magnetization    =     2.43 Bohr mag/cell
[tb_dev] Currently allocated     7.03E+00 Mbytes, locked:    0 /  18
[tb_pin] Currently allocated     0.00E+00 Mbytes, locked:    0 /   0

     iteration # 11     ecut=    65.00 Ry     beta= 0.10
     Davidson diagonalization with overlap

---- Real-time Memory Report at c_bands before calling an iterative solver
          1239 MiB given to the printing process from OS
          1041 MiB allocation reported by mallinfo(arena+hblkhd)
         58416 MiB available memory on the node where the printing process lives
     GPU memory used/free/total (MiB): 1580 / 14700 / 16280
------------------
     c_bands:  1 eigenvalues not converged
     c_bands:  1 eigenvalues not converged
     ethr =  1.10E-07,  avg # of iterations = 12.7

     total cpu time spent up to now is       55.1 secs

     total energy              =    -406.10086766 Ry
     estimated scf accuracy    <       0.00025774 Ry

     total magnetization       =     0.83 Bohr mag/cell
     absolute magnetization    =     1.69 Bohr mag/cell
[tb_dev] Currently allocated     7.03E+00 Mbytes, locked:    0 /  18
[tb_pin] Currently allocated     0.00E+00 Mbytes, locked:    0 /   0

     iteration # 12     ecut=    65.00 Ry     beta= 0.10
     Davidson diagonalization with overlap

---- Real-time Memory Report at c_bands before calling an iterative solver
          1239 MiB given to the printing process from OS
          1041 MiB allocation reported by mallinfo(arena+hblkhd)
         58416 MiB available memory on the node where the printing process lives
     GPU memory used/free/total (MiB): 1580 / 14700 / 16280
------------------
     c_bands:  1 eigenvalues not converged
     c_bands:  1 eigenvalues not converged
     c_bands:  1 eigenvalues not converged
     ethr =  1.10E-07,  avg # of iterations = 12.8

     total cpu time spent up to now is       63.6 secs

     total energy              =    -406.09709495 Ry
     estimated scf accuracy    <       0.00329913 Ry

     total magnetization       =     0.45 Bohr mag/cell
     absolute magnetization    =     1.00 Bohr mag/cell
[tb_dev] Currently allocated     7.03E+00 Mbytes, locked:    0 /  18
[tb_pin] Currently allocated     0.00E+00 Mbytes, locked:    0 /   0

     iteration # 13     ecut=    65.00 Ry     beta= 0.10
     Davidson diagonalization with overlap

---- Real-time Memory Report at c_bands before calling an iterative solver
          1239 MiB given to the printing process from OS
          1041 MiB allocation reported by mallinfo(arena+hblkhd)
         58387 MiB available memory on the node where the printing process lives
     GPU memory used/free/total (MiB): 1580 / 14700 / 16280
------------------
     c_bands:  1 eigenvalues not converged
     c_bands:  1 eigenvalues not converged
     ethr =  1.10E-07,  avg # of iterations = 13.0

     total cpu time spent up to now is       72.3 secs

     total energy              =    -406.10452792 Ry
     estimated scf accuracy    <       0.00019967 Ry

     total magnetization       =     0.93 Bohr mag/cell
     absolute magnetization    =     1.84 Bohr mag/cell
[tb_dev] Currently allocated     7.03E+00 Mbytes, locked:    0 /  18
[tb_pin] Currently allocated     0.00E+00 Mbytes, locked:    0 /   0

     iteration # 14     ecut=    65.00 Ry     beta= 0.10
     Davidson diagonalization with overlap

---- Real-time Memory Report at c_bands before calling an iterative solver
          1239 MiB given to the printing process from OS
          1041 MiB allocation reported by mallinfo(arena+hblkhd)
         58398 MiB available memory on the node where the printing process lives
     GPU memory used/free/total (MiB): 1580 / 14700 / 16280
------------------
     ethr =  1.10E-07,  avg # of iterations =  5.7

     total cpu time spent up to now is       76.7 secs

     total energy              =    -406.10102452 Ry
     estimated scf accuracy    <       0.00020997 Ry

     total magnetization       =     0.98 Bohr mag/cell
     absolute magnetization    =     1.91 Bohr mag/cell
[tb_dev] Currently allocated     7.03E+00 Mbytes, locked:    0 /  18
[tb_pin] Currently allocated     0.00E+00 Mbytes, locked:    0 /   0

     iteration # 15     ecut=    65.00 Ry     beta= 0.10
     Davidson diagonalization with overlap

---- Real-time Memory Report at c_bands before calling an iterative solver
          1239 MiB given to the printing process from OS
          1041 MiB allocation reported by mallinfo(arena+hblkhd)
         58402 MiB available memory on the node where the printing process lives
     GPU memory used/free/total (MiB): 1580 / 14700 / 16280
------------------
     c_bands:  1 eigenvalues not converged
     c_bands:  1 eigenvalues not converged
     ethr =  1.10E-07,  avg # of iterations = 12.0

     total cpu time spent up to now is       84.7 secs

     total energy              =    -406.09866790 Ry
     estimated scf accuracy    <       0.00086085 Ry

     total magnetization       =     0.57 Bohr mag/cell
     absolute magnetization    =     1.24 Bohr mag/cell
[tb_dev] Currently allocated     7.03E+00 Mbytes, locked:    0 /  18
[tb_pin] Currently allocated     0.00E+00 Mbytes, locked:    0 /   0

     iteration # 16     ecut=    65.00 Ry     beta= 0.10
     Davidson diagonalization with overlap

---- Real-time Memory Report at c_bands before calling an iterative solver
          1239 MiB given to the printing process from OS
          1041 MiB allocation reported by mallinfo(arena+hblkhd)
         58407 MiB available memory on the node where the printing process lives
     GPU memory used/free/total (MiB): 1580 / 14700 / 16280
------------------
     c_bands:  1 eigenvalues not converged
     c_bands:  1 eigenvalues not converged
     ethr =  1.10E-07,  avg # of iterations = 12.3

     total cpu time spent up to now is       93.2 secs

     total energy              =    -406.09964046 Ry
     estimated scf accuracy    <       0.00049155 Ry

     total magnetization       =     1.02 Bohr mag/cell
     absolute magnetization    =     1.99 Bohr mag/cell
[tb_dev] Currently allocated     7.03E+00 Mbytes, locked:    0 /  18
[tb_pin] Currently allocated     0.00E+00 Mbytes, locked:    0 /   0

     iteration # 17     ecut=    65.00 Ry     beta= 0.10
     Davidson diagonalization with overlap

---- Real-time Memory Report at c_bands before calling an iterative solver
          1239 MiB given to the printing process from OS
          1041 MiB allocation reported by mallinfo(arena+hblkhd)
         58410 MiB available memory on the node where the printing process lives
     GPU memory used/free/total (MiB): 1580 / 14700 / 16280
------------------
     c_bands:  1 eigenvalues not converged
     c_bands:  1 eigenvalues not converged
     c_bands:  1 eigenvalues not converged
     c_bands:  1 eigenvalues not converged
     c_bands:  1 eigenvalues not converged
     ethr =  1.10E-07,  avg # of iterations = 12.5

     total cpu time spent up to now is      101.4 secs

     total energy              =    -406.09816666 Ry
     estimated scf accuracy    <       0.00085324 Ry

     total magnetization       =     1.43 Bohr mag/cell
     absolute magnetization    =     2.59 Bohr mag/cell
[tb_dev] Currently allocated     7.03E+00 Mbytes, locked:    0 /  18
[tb_pin] Currently allocated     0.00E+00 Mbytes, locked:    0 /   0

     iteration # 18     ecut=    65.00 Ry     beta= 0.10
     Davidson diagonalization with overlap

---- Real-time Memory Report at c_bands before calling an iterative solver
          1239 MiB given to the printing process from OS
          1041 MiB allocation reported by mallinfo(arena+hblkhd)
         58410 MiB available memory on the node where the printing process lives
     GPU memory used/free/total (MiB): 1580 / 14700 / 16280
------------------
     c_bands:  1 eigenvalues not converged
     c_bands:  1 eigenvalues not converged
     c_bands:  1 eigenvalues not converged
     c_bands:  1 eigenvalues not converged
     c_bands:  1 eigenvalues not converged
     ethr =  1.10E-07,  avg # of iterations = 12.9

     total cpu time spent up to now is      110.0 secs

     total energy              =    -406.07436496 Ry
     estimated scf accuracy    <       0.00030744 Ry

     total magnetization       =     0.90 Bohr mag/cell
     absolute magnetization    =     1.80 Bohr mag/cell
[tb_dev] Currently allocated     7.03E+00 Mbytes, locked:    0 /  18
[tb_pin] Currently allocated     0.00E+00 Mbytes, locked:    0 /   0

     iteration # 19     ecut=    65.00 Ry     beta= 0.10
     Davidson diagonalization with overlap

---- Real-time Memory Report at c_bands before calling an iterative solver
          1239 MiB given to the printing process from OS
          1041 MiB allocation reported by mallinfo(arena+hblkhd)
         58412 MiB available memory on the node where the printing process lives
     GPU memory used/free/total (MiB): 1580 / 14700 / 16280
------------------
     c_bands:  1 eigenvalues not converged
     c_bands:  1 eigenvalues not converged
     c_bands:  1 eigenvalues not converged
     c_bands:  1 eigenvalues not converged
     c_bands:  1 eigenvalues not converged
     c_bands:  1 eigenvalues not converged
     c_bands:  1 eigenvalues not converged
     c_bands:  1 eigenvalues not converged
     c_bands:  1 eigenvalues not converged
     c_bands:  1 eigenvalues not converged
     c_bands:  2 eigenvalues not converged
     c_bands:  1 eigenvalues not converged
     c_bands:  2 eigenvalues not converged
     ethr =  1.10E-07,  avg # of iterations = 15.0

     total cpu time spent up to now is      119.7 secs

     total energy              =    -406.09916526 Ry
     estimated scf accuracy    <       0.00327213 Ry

     total magnetization       =     2.00 Bohr mag/cell
     absolute magnetization    =     3.35 Bohr mag/cell
[tb_dev] Currently allocated     7.03E+00 Mbytes, locked:    0 /  18
[tb_pin] Currently allocated     0.00E+00 Mbytes, locked:    0 /   0

     iteration # 20     ecut=    65.00 Ry     beta= 0.10
     Davidson diagonalization with overlap

---- Real-time Memory Report at c_bands before calling an iterative solver
          1239 MiB given to the printing process from OS
          1041 MiB allocation reported by mallinfo(arena+hblkhd)
         58401 MiB available memory on the node where the printing process lives
     GPU memory used/free/total (MiB): 1580 / 14700 / 16280
------------------
     c_bands:  2 eigenvalues not converged
     c_bands:  1 eigenvalues not converged
     c_bands:  1 eigenvalues not converged
     c_bands:  1 eigenvalues not converged
     c_bands:  2 eigenvalues not converged
     c_bands:  2 eigenvalues not converged
     c_bands:  1 eigenvalues not converged
     c_bands:  1 eigenvalues not converged
     c_bands:  1 eigenvalues not converged
     c_bands:  2 eigenvalues not converged
     c_bands:  1 eigenvalues not converged
     c_bands:  2 eigenvalues not converged
     c_bands:  1 eigenvalues not converged
     c_bands:  1 eigenvalues not converged
     c_bands:  2 eigenvalues not converged
     c_bands:  1 eigenvalues not converged
     ethr =  1.10E-07,  avg # of iterations = 12.9

     total cpu time spent up to now is      128.0 secs

     total energy              =    -406.05746090 Ry
     estimated scf accuracy    <       0.01775091 Ry

     total magnetization       =     2.32 Bohr mag/cell
     absolute magnetization    =     3.81 Bohr mag/cell
[tb_dev] Currently allocated     7.03E+00 Mbytes, locked:    0 /  18
[tb_pin] Currently allocated     0.00E+00 Mbytes, locked:    0 /   0

     iteration # 21     ecut=    65.00 Ry     beta= 0.10
     Davidson diagonalization with overlap

---- Real-time Memory Report at c_bands before calling an iterative solver
          1239 MiB given to the printing process from OS
          1041 MiB allocation reported by mallinfo(arena+hblkhd)
         58407 MiB available memory on the node where the printing process lives
     GPU memory used/free/total (MiB): 1580 / 14700 / 16280
------------------
     c_bands:  1 eigenvalues not converged
     c_bands:  1 eigenvalues not converged
     c_bands:  1 eigenvalues not converged
     c_bands:  1 eigenvalues not converged
     c_bands:  1 eigenvalues not converged
     c_bands:  1 eigenvalues not converged
     c_bands:  2 eigenvalues not converged
     c_bands:  1 eigenvalues not converged
     c_bands:  1 eigenvalues not converged
     c_bands:  1 eigenvalues not converged
     c_bands:  1 eigenvalues not converged
     c_bands:  1 eigenvalues not converged
     c_bands:  4 eigenvalues not converged
     c_bands:  2 eigenvalues not converged
     c_bands:  3 eigenvalues not converged
     c_bands:  4 eigenvalues not converged
     c_bands:  1 eigenvalues not converged
     c_bands:  2 eigenvalues not converged
     ethr =  1.10E-07,  avg # of iterations = 16.0

     total cpu time spent up to now is      138.4 secs

     total energy              =    -406.08641319 Ry
     estimated scf accuracy    <       0.00227714 Ry

     total magnetization       =     0.87 Bohr mag/cell
     absolute magnetization    =     1.74 Bohr mag/cell
[tb_dev] Currently allocated     7.03E+00 Mbytes, locked:    0 /  18
[tb_pin] Currently allocated     0.00E+00 Mbytes, locked:    0 /   0

     iteration # 22     ecut=    65.00 Ry     beta= 0.10
     Davidson diagonalization with overlap

---- Real-time Memory Report at c_bands before calling an iterative solver
          1239 MiB given to the printing process from OS
          1041 MiB allocation reported by mallinfo(arena+hblkhd)
         58411 MiB available memory on the node where the printing process lives
     GPU memory used/free/total (MiB): 1580 / 14700 / 16280
------------------
     c_bands:  1 eigenvalues not converged
     c_bands:  1 eigenvalues not converged
     c_bands:  1 eigenvalues not converged
     c_bands:  1 eigenvalues not converged
     c_bands:  1 eigenvalues not converged
     c_bands:  1 eigenvalues not converged
     c_bands:  1 eigenvalues not converged
     c_bands:  1 eigenvalues not converged
     c_bands:  1 eigenvalues not converged
     c_bands:  1 eigenvalues not converged
     ethr =  1.10E-07,  avg # of iterations = 14.4

     total cpu time spent up to now is      147.7 secs

     total energy              =    -406.10283236 Ry
     estimated scf accuracy    <       0.00134528 Ry

     total magnetization       =     1.72 Bohr mag/cell
     absolute magnetization    =     2.98 Bohr mag/cell
[tb_dev] Currently allocated     7.03E+00 Mbytes, locked:    0 /  18
[tb_pin] Currently allocated     0.00E+00 Mbytes, locked:    0 /   0

     iteration # 23     ecut=    65.00 Ry     beta= 0.10
     Davidson diagonalization with overlap

---- Real-time Memory Report at c_bands before calling an iterative solver
          1239 MiB given to the printing process from OS
          1041 MiB allocation reported by mallinfo(arena+hblkhd)
         58412 MiB available memory on the node where the printing process lives
     GPU memory used/free/total (MiB): 1580 / 14700 / 16280
------------------
     ethr =  1.10E-07,  avg # of iterations =  8.6

     total cpu time spent up to now is      153.7 secs

     total energy              =    -406.10306661 Ry
     estimated scf accuracy    <       0.00030186 Ry

     total magnetization       =     1.53 Bohr mag/cell
     absolute magnetization    =     2.73 Bohr mag/cell
[tb_dev] Currently allocated     7.03E+00 Mbytes, locked:    0 /  18
[tb_pin] Currently allocated     0.00E+00 Mbytes, locked:    0 /   0

     iteration # 24     ecut=    65.00 Ry     beta= 0.10
     Davidson diagonalization with overlap

---- Real-time Memory Report at c_bands before calling an iterative solver
          1239 MiB given to the printing process from OS
          1041 MiB allocation reported by mallinfo(arena+hblkhd)
         58412 MiB available memory on the node where the printing process lives
     GPU memory used/free/total (MiB): 1580 / 14700 / 16280
------------------
     ethr =  1.10E-07,  avg # of iterations =  7.1

     total cpu time spent up to now is      159.0 secs

     total energy              =    -406.10257775 Ry
     estimated scf accuracy    <       0.00130809 Ry

     total magnetization       =     1.65 Bohr mag/cell
     absolute magnetization    =     2.89 Bohr mag/cell
[tb_dev] Currently allocated     7.03E+00 Mbytes, locked:    0 /  18
[tb_pin] Currently allocated     0.00E+00 Mbytes, locked:    0 /   0

     iteration # 25     ecut=    65.00 Ry     beta= 0.10
     Davidson diagonalization with overlap

---- Real-time Memory Report at c_bands before calling an iterative solver
          1239 MiB given to the printing process from OS
          1041 MiB allocation reported by mallinfo(arena+hblkhd)
         58412 MiB available memory on the node where the printing process lives
     GPU memory used/free/total (MiB): 1580 / 14700 / 16280
------------------
     ethr =  1.10E-07,  avg # of iterations =  9.5

     total cpu time spent up to now is      165.4 secs

     total energy              =    -406.10356650 Ry
     estimated scf accuracy    <       0.00016324 Ry

     total magnetization       =     1.43 Bohr mag/cell
     absolute magnetization    =     2.58 Bohr mag/cell
[tb_dev] Currently allocated     7.03E+00 Mbytes, locked:    0 /  18
[tb_pin] Currently allocated     0.00E+00 Mbytes, locked:    0 /   0

     iteration # 26     ecut=    65.00 Ry     beta= 0.10
     Davidson diagonalization with overlap

---- Real-time Memory Report at c_bands before calling an iterative solver
          1239 MiB given to the printing process from OS
          1041 MiB allocation reported by mallinfo(arena+hblkhd)
         58412 MiB available memory on the node where the printing process lives
     GPU memory used/free/total (MiB): 1580 / 14700 / 16280
------------------
     ethr =  1.10E-07,  avg # of iterations =  7.5

     total cpu time spent up to now is      170.9 secs

     total energy              =    -406.10387939 Ry
     estimated scf accuracy    <       0.00006593 Ry

     total magnetization       =     1.31 Bohr mag/cell
     absolute magnetization    =     2.41 Bohr mag/cell
[tb_dev] Currently allocated     7.03E+00 Mbytes, locked:    0 /  18
[tb_pin] Currently allocated     0.00E+00 Mbytes, locked:    0 /   0

     iteration # 27     ecut=    65.00 Ry     beta= 0.10
     Davidson diagonalization with overlap

---- Real-time Memory Report at c_bands before calling an iterative solver
          1239 MiB given to the printing process from OS
          1041 MiB allocation reported by mallinfo(arena+hblkhd)
         58411 MiB available memory on the node where the printing process lives
     GPU memory used/free/total (MiB): 1580 / 14700 / 16280
------------------
     ethr =  1.10E-07,  avg # of iterations =  1.2

     total cpu time spent up to now is      173.2 secs

     total energy              =    -406.10389734 Ry
     estimated scf accuracy    <       0.00005784 Ry

     total magnetization       =     1.32 Bohr mag/cell
     absolute magnetization    =     2.42 Bohr mag/cell
[tb_dev] Currently allocated     7.03E+00 Mbytes, locked:    0 /  18
[tb_pin] Currently allocated     0.00E+00 Mbytes, locked:    0 /   0

     iteration # 28     ecut=    65.00 Ry     beta= 0.10
     Davidson diagonalization with overlap

---- Real-time Memory Report at c_bands before calling an iterative solver
          1239 MiB given to the printing process from OS
          1041 MiB allocation reported by mallinfo(arena+hblkhd)
         58412 MiB available memory on the node where the printing process lives
     GPU memory used/free/total (MiB): 1580 / 14700 / 16280
------------------
     ethr =  1.10E-07,  avg # of iterations =  6.1

     total cpu time spent up to now is      177.9 secs

     total energy              =    -406.10254754 Ry
     estimated scf accuracy    <       0.00010475 Ry

     total magnetization       =     1.27 Bohr mag/cell
     absolute magnetization    =     2.33 Bohr mag/cell
[tb_dev] Currently allocated     7.03E+00 Mbytes, locked:    0 /  18
[tb_pin] Currently allocated     0.00E+00 Mbytes, locked:    0 /   0

     iteration # 29     ecut=    65.00 Ry     beta= 0.10
     Davidson diagonalization with overlap

---- Real-time Memory Report at c_bands before calling an iterative solver
          1240 MiB given to the printing process from OS
          1041 MiB allocation reported by mallinfo(arena+hblkhd)
         58413 MiB available memory on the node where the printing process lives
     GPU memory used/free/total (MiB): 1580 / 14700 / 16280
------------------
     ethr =  1.10E-07,  avg # of iterations =  9.2

     total cpu time spent up to now is      184.2 secs

     total energy              =    -406.10351336 Ry
     estimated scf accuracy    <       0.00006959 Ry

     total magnetization       =     1.47 Bohr mag/cell
     absolute magnetization    =     2.63 Bohr mag/cell
[tb_dev] Currently allocated     7.03E+00 Mbytes, locked:    0 /  18
[tb_pin] Currently allocated     0.00E+00 Mbytes, locked:    0 /   0

     iteration # 30     ecut=    65.00 Ry     beta= 0.10
     Davidson diagonalization with overlap

---- Real-time Memory Report at c_bands before calling an iterative solver
          1240 MiB given to the printing process from OS
          1041 MiB allocation reported by mallinfo(arena+hblkhd)
         58413 MiB available memory on the node where the printing process lives
     GPU memory used/free/total (MiB): 1580 / 14700 / 16280
------------------
     ethr =  1.10E-07,  avg # of iterations =  4.9

     total cpu time spent up to now is      188.4 secs

     total energy              =    -406.10283483 Ry
     estimated scf accuracy    <       0.00051693 Ry

     total magnetization       =     1.50 Bohr mag/cell
     absolute magnetization    =     2.70 Bohr mag/cell
[tb_dev] Currently allocated     7.03E+00 Mbytes, locked:    0 /  18
[tb_pin] Currently allocated     0.00E+00 Mbytes, locked:    0 /   0

     iteration # 31     ecut=    65.00 Ry     beta= 0.10
     Davidson diagonalization with overlap

---- Real-time Memory Report at c_bands before calling an iterative solver
          1240 MiB given to the printing process from OS
          1041 MiB allocation reported by mallinfo(arena+hblkhd)
         58413 MiB available memory on the node where the printing process lives
     GPU memory used/free/total (MiB): 1580 / 14700 / 16280
------------------
     ethr =  1.10E-07,  avg # of iterations =  9.5

     total cpu time spent up to now is      194.9 secs

     total energy              =    -406.10382730 Ry
     estimated scf accuracy    <       0.00006073 Ry

     total magnetization       =     1.30 Bohr mag/cell
     absolute magnetization    =     2.39 Bohr mag/cell
[tb_dev] Currently allocated     7.03E+00 Mbytes, locked:    0 /  18
[tb_pin] Currently allocated     0.00E+00 Mbytes, locked:    0 /   0

     iteration # 32     ecut=    65.00 Ry     beta= 0.10
     Davidson diagonalization with overlap

---- Real-time Memory Report at c_bands before calling an iterative solver
          1240 MiB given to the printing process from OS
          1041 MiB allocation reported by mallinfo(arena+hblkhd)
         58412 MiB available memory on the node where the printing process lives
     GPU memory used/free/total (MiB): 1580 / 14700 / 16280
------------------
     ethr =  1.10E-07,  avg # of iterations =  5.1

     total cpu time spent up to now is      199.3 secs

     total energy              =    -406.06877451 Ry
     estimated scf accuracy    <       0.00085617 Ry

     total magnetization       =     1.34 Bohr mag/cell
     absolute magnetization    =     2.43 Bohr mag/cell
[tb_dev] Currently allocated     7.03E+00 Mbytes, locked:    0 /  18
[tb_pin] Currently allocated     0.00E+00 Mbytes, locked:    0 /   0

     iteration # 33     ecut=    65.00 Ry     beta= 0.10
     Davidson diagonalization with overlap

---- Real-time Memory Report at c_bands before calling an iterative solver
          1240 MiB given to the printing process from OS
          1041 MiB allocation reported by mallinfo(arena+hblkhd)
         58413 MiB available memory on the node where the printing process lives
     GPU memory used/free/total (MiB): 1580 / 14700 / 16280
------------------
     c_bands:  1 eigenvalues not converged
     c_bands:  1 eigenvalues not converged
     c_bands:  1 eigenvalues not converged
     c_bands:  1 eigenvalues not converged
     c_bands:  1 eigenvalues not converged
     c_bands:  1 eigenvalues not converged
     c_bands:  2 eigenvalues not converged
     c_bands:  1 eigenvalues not converged
     c_bands:  2 eigenvalues not converged
     ethr =  1.10E-07,  avg # of iterations = 15.9

     total cpu time spent up to now is      209.6 secs

     total energy              =    -406.09139251 Ry
     estimated scf accuracy    <       0.00803445 Ry

     total magnetization       =     0.32 Bohr mag/cell
     absolute magnetization    =     0.64 Bohr mag/cell
[tb_dev] Currently allocated     7.03E+00 Mbytes, locked:    0 /  18
[tb_pin] Currently allocated     0.00E+00 Mbytes, locked:    0 /   0

     iteration # 34     ecut=    65.00 Ry     beta= 0.10
     Davidson diagonalization with overlap

---- Real-time Memory Report at c_bands before calling an iterative solver
          1240 MiB given to the printing process from OS
          1041 MiB allocation reported by mallinfo(arena+hblkhd)
         58414 MiB available memory on the node where the printing process lives
     GPU memory used/free/total (MiB): 1580 / 14700 / 16280
------------------
     c_bands:  1 eigenvalues not converged
     c_bands:  1 eigenvalues not converged
     c_bands:  1 eigenvalues not converged
     ethr =  1.10E-07,  avg # of iterations = 14.5

     total cpu time spent up to now is      219.0 secs

     total energy              =    -406.10663100 Ry
     estimated scf accuracy    <       0.02491478 Ry

     total magnetization       =    -0.27 Bohr mag/cell
     absolute magnetization    =     0.56 Bohr mag/cell
[tb_dev] Currently allocated     7.03E+00 Mbytes, locked:    0 /  18
[tb_pin] Currently allocated     0.00E+00 Mbytes, locked:    0 /   0

     iteration # 35     ecut=    65.00 Ry     beta= 0.10
     Davidson diagonalization with overlap

---- Real-time Memory Report at c_bands before calling an iterative solver
          1240 MiB given to the printing process from OS
          1041 MiB allocation reported by mallinfo(arena+hblkhd)
         58415 MiB available memory on the node where the printing process lives
     GPU memory used/free/total (MiB): 1580 / 14700 / 16280
------------------
     ethr =  1.10E-07,  avg # of iterations =  3.9

     total cpu time spent up to now is      222.5 secs

     total energy              =    -406.10657788 Ry
     estimated scf accuracy    <       0.02219165 Ry

     total magnetization       =    -0.24 Bohr mag/cell
     absolute magnetization    =     0.52 Bohr mag/cell
[tb_dev] Currently allocated     7.03E+00 Mbytes, locked:    0 /  18
[tb_pin] Currently allocated     0.00E+00 Mbytes, locked:    0 /   0

     iteration # 36     ecut=    65.00 Ry     beta= 0.10
     Davidson diagonalization with overlap

---- Real-time Memory Report at c_bands before calling an iterative solver
          1240 MiB given to the printing process from OS
          1041 MiB allocation reported by mallinfo(arena+hblkhd)
         58416 MiB available memory on the node where the printing process lives
     GPU memory used/free/total (MiB): 1580 / 14700 / 16280
------------------
     ethr =  1.10E-07,  avg # of iterations =  6.4

     total cpu time spent up to now is      227.4 secs

     total energy              =    -406.09953985 Ry
     estimated scf accuracy    <       0.03155411 Ry

     total magnetization       =    -0.32 Bohr mag/cell
     absolute magnetization    =     0.66 Bohr mag/cell
[tb_dev] Currently allocated     7.03E+00 Mbytes, locked:    0 /  18
[tb_pin] Currently allocated     0.00E+00 Mbytes, locked:    0 /   0

     iteration # 37     ecut=    65.00 Ry     beta= 0.10
     Davidson diagonalization with overlap

---- Real-time Memory Report at c_bands before calling an iterative solver
          1240 MiB given to the printing process from OS
          1041 MiB allocation reported by mallinfo(arena+hblkhd)
         58415 MiB available memory on the node where the printing process lives
     GPU memory used/free/total (MiB): 1580 / 14700 / 16280
------------------
     ethr =  1.10E-07,  avg # of iterations = 13.0

     total cpu time spent up to now is      235.9 secs

     total energy              =    -406.07715103 Ry
     estimated scf accuracy    <       0.00961893 Ry

     total magnetization       =     0.08 Bohr mag/cell
     absolute magnetization    =     0.15 Bohr mag/cell
[tb_dev] Currently allocated     7.03E+00 Mbytes, locked:    0 /  18
[tb_pin] Currently allocated     0.00E+00 Mbytes, locked:    0 /   0

     iteration # 38     ecut=    65.00 Ry     beta= 0.10
     Davidson diagonalization with overlap

---- Real-time Memory Report at c_bands before calling an iterative solver
          1240 MiB given to the printing process from OS
          1041 MiB allocation reported by mallinfo(arena+hblkhd)
         58416 MiB available memory on the node where the printing process lives
     GPU memory used/free/total (MiB): 1580 / 14700 / 16280
------------------
     c_bands:  1 eigenvalues not converged
     c_bands:  1 eigenvalues not converged
     c_bands:  1 eigenvalues not converged
     c_bands:  1 eigenvalues not converged
     ethr =  1.10E-07,  avg # of iterations = 15.3

     total cpu time spent up to now is      245.8 secs

     total energy              =    -406.10237162 Ry
     estimated scf accuracy    <       0.00023737 Ry

     total magnetization       =     0.86 Bohr mag/cell
     absolute magnetization    =     1.74 Bohr mag/cell
[tb_dev] Currently allocated     7.03E+00 Mbytes, locked:    0 /  18
[tb_pin] Currently allocated     0.00E+00 Mbytes, locked:    0 /   0

     iteration # 39     ecut=    65.00 Ry     beta= 0.10
     Davidson diagonalization with overlap

---- Real-time Memory Report at c_bands before calling an iterative solver
          1240 MiB given to the printing process from OS
          1041 MiB allocation reported by mallinfo(arena+hblkhd)
         58415 MiB available memory on the node where the printing process lives
     GPU memory used/free/total (MiB): 1580 / 14700 / 16280
------------------
     c_bands:  1 eigenvalues not converged
     c_bands:  1 eigenvalues not converged
     c_bands:  1 eigenvalues not converged
     c_bands:  1 eigenvalues not converged
     ethr =  1.10E-07,  avg # of iterations = 10.8

     total cpu time spent up to now is      253.0 secs

     total energy              =    -406.08564900 Ry
     estimated scf accuracy    <       0.00021186 Ry

     total magnetization       =     1.14 Bohr mag/cell
     absolute magnetization    =     2.16 Bohr mag/cell
[tb_dev] Currently allocated     7.03E+00 Mbytes, locked:    0 /  18
[tb_pin] Currently allocated     0.00E+00 Mbytes, locked:    0 /   0

     iteration # 40     ecut=    65.00 Ry     beta= 0.10
     Davidson diagonalization with overlap

---- Real-time Memory Report at c_bands before calling an iterative solver
          1240 MiB given to the printing process from OS
          1041 MiB allocation reported by mallinfo(arena+hblkhd)
         58415 MiB available memory on the node where the printing process lives
     GPU memory used/free/total (MiB): 1580 / 14700 / 16280
------------------
     c_bands:  1 eigenvalues not converged
[...]
     GPU memory used/free/total (MiB): 1580 / 14700 / 16280
------------------
     ethr =  1.10E-07,  avg # of iterations =  1.9

     total cpu time spent up to now is      417.6 secs

     total energy              =    -406.10203512 Ry
     estimated scf accuracy    <       0.00052522 Ry

     total magnetization       =     1.68 Bohr mag/cell
     absolute magnetization    =     2.91 Bohr mag/cell
[tb_dev] Currently allocated     7.03E+00 Mbytes, locked:    0 /  18
[tb_pin] Currently allocated     0.00E+00 Mbytes, locked:    0 /   0

     iteration # 65     ecut=    65.00 Ry     beta= 0.10
     Davidson diagonalization with overlap

---- Real-time Memory Report at c_bands before calling an iterative solver
          1240 MiB given to the printing process from OS
          1041 MiB allocation reported by mallinfo(arena+hblkhd)
         58419 MiB available memory on the node where the printing process lives
     GPU memory used/free/total (MiB): 1580 / 14700 / 16280
------------------
     ethr =  1.10E-07,  avg # of iterations = 10.3

     total cpu time spent up to now is      424.6 secs

     total energy              =    -406.10033153 Ry
     estimated scf accuracy    <       0.00030834 Ry

     total magnetization       =     1.40 Bohr mag/cell
     absolute magnetization    =     2.53 Bohr mag/cell
[tb_dev] Currently allocated     7.03E+00 Mbytes, locked:    0 /  18
[tb_pin] Currently allocated     0.00E+00 Mbytes, locked:    0 /   0

     iteration # 66     ecut=    65.00 Ry     beta= 0.10
     Davidson diagonalization with overlap

---- Real-time Memory Report at c_bands before calling an iterative solver
          1240 MiB given to the printing process from OS
          1041 MiB allocation reported by mallinfo(arena+hblkhd)
         58419 MiB available memory on the node where the printing process lives
     GPU memory used/free/total (MiB): 1580 / 14700 / 16280
------------------
     ethr =  1.10E-07,  avg # of iterations = 11.2

     total cpu time spent up to now is      432.0 secs

     total energy              =    -406.10217569 Ry
     estimated scf accuracy    <       0.00118877 Ry

     total magnetization       =     1.77 Bohr mag/cell
     absolute magnetization    =     3.02 Bohr mag/cell
[tb_dev] Currently allocated     7.03E+00 Mbytes, locked:    0 /  18
[tb_pin] Currently allocated     0.00E+00 Mbytes, locked:    0 /   0

     iteration # 67     ecut=    65.00 Ry     beta= 0.10
     Davidson diagonalization with overlap

---- Real-time Memory Report at c_bands before calling an iterative solver
          1240 MiB given to the printing process from OS
          1041 MiB allocation reported by mallinfo(arena+hblkhd)
         58419 MiB available memory on the node where the printing process lives
     GPU memory used/free/total (MiB): 1580 / 14700 / 16280
------------------
     ethr =  1.10E-07,  avg # of iterations =  8.4

     total cpu time spent up to now is      438.1 secs

     total energy              =    -406.10246595 Ry
     estimated scf accuracy    <       0.00010133 Ry

     total magnetization       =     1.91 Bohr mag/cell
     absolute magnetization    =     3.21 Bohr mag/cell
[tb_dev] Currently allocated     7.03E+00 Mbytes, locked:    0 /  18
[tb_pin] Currently allocated     0.00E+00 Mbytes, locked:    0 /   0

     iteration # 68     ecut=    65.00 Ry     beta= 0.10
     Davidson diagonalization with overlap

---- Real-time Memory Report at c_bands before calling an iterative solver
          1240 MiB given to the printing process from OS
          1041 MiB allocation reported by mallinfo(arena+hblkhd)
         58419 MiB available memory on the node where the printing process lives
     GPU memory used/free/total (MiB): 1580 / 14700 / 16280
------------------
     ethr =  1.10E-07,  avg # of iterations =  6.6

     total cpu time spent up to now is      443.1 secs

     total energy              =    -406.10191139 Ry
     estimated scf accuracy    <       0.00033737 Ry

     total magnetization       =     2.00 Bohr mag/cell
     absolute magnetization    =     3.32 Bohr mag/cell
[tb_dev] Currently allocated     7.03E+00 Mbytes, locked:    0 /  18
[tb_pin] Currently allocated     0.00E+00 Mbytes, locked:    0 /   0

     iteration # 69     ecut=    65.00 Ry     beta= 0.10
     Davidson diagonalization with overlap

---- Real-time Memory Report at c_bands before calling an iterative solver
          1240 MiB given to the printing process from OS
          1041 MiB allocation reported by mallinfo(arena+hblkhd)
         58418 MiB available memory on the node where the printing process lives
     GPU memory used/free/total (MiB): 1580 / 14700 / 16280
------------------
     ethr =  1.10E-07,  avg # of iterations =  9.5

     total cpu time spent up to now is      449.7 secs

     total energy              =    -406.09817309 Ry
     estimated scf accuracy    <       0.00007836 Ry

     total magnetization       =     1.77 Bohr mag/cell
     absolute magnetization    =     3.01 Bohr mag/cell
[tb_dev] Currently allocated     7.03E+00 Mbytes, locked:    0 /  18
[tb_pin] Currently allocated     0.00E+00 Mbytes, locked:    0 /   0

     iteration # 70     ecut=    65.00 Ry     beta= 0.10
     Davidson diagonalization with overlap

---- Real-time Memory Report at c_bands before calling an iterative solver
          1240 MiB given to the printing process from OS
          1041 MiB allocation reported by mallinfo(arena+hblkhd)
         58419 MiB available memory on the node where the printing process lives
     GPU memory used/free/total (MiB): 1580 / 14700 / 16280
------------------
     c_bands:  1 eigenvalues not converged
     ethr =  1.10E-07,  avg # of iterations = 11.8

     total cpu time spent up to now is      457.6 secs

     total energy              =    -406.09917864 Ry
     estimated scf accuracy    <       0.00076031 Ry

     total magnetization       =     2.18 Bohr mag/cell
     absolute magnetization    =     3.53 Bohr mag/cell
[tb_dev] Currently allocated     7.03E+00 Mbytes, locked:    0 /  18
[tb_pin] Currently allocated     0.00E+00 Mbytes, locked:    0 /   0

     iteration # 71     ecut=    65.00 Ry     beta= 0.10
     Davidson diagonalization with overlap

---- Real-time Memory Report at c_bands before calling an iterative solver
          1240 MiB given to the printing process from OS
          1041 MiB allocation reported by mallinfo(arena+hblkhd)
         58419 MiB available memory on the node where the printing process lives
     GPU memory used/free/total (MiB): 1580 / 14700 / 16280
------------------
     ethr =  1.10E-07,  avg # of iterations = 11.9

     total cpu time spent up to now is      465.6 secs

     total energy              =    -406.10264331 Ry
     estimated scf accuracy    <       0.00009751 Ry

     total magnetization       =     1.75 Bohr mag/cell
     absolute magnetization    =     2.99 Bohr mag/cell
[tb_dev] Currently allocated     7.03E+00 Mbytes, locked:    0 /  18
[tb_pin] Currently allocated     0.00E+00 Mbytes, locked:    0 /   0

     iteration # 72     ecut=    65.00 Ry     beta= 0.10
     Davidson diagonalization with overlap

---- Real-time Memory Report at c_bands before calling an iterative solver
          1240 MiB given to the printing process from OS
          1041 MiB allocation reported by mallinfo(arena+hblkhd)
         58419 MiB available memory on the node where the printing process lives
     GPU memory used/free/total (MiB): 1580 / 14700 / 16280
------------------
     ethr =  1.10E-07,  avg # of iterations =  9.7

     total cpu time spent up to now is      472.2 secs

     total energy              =    -406.10353567 Ry
     estimated scf accuracy    <       0.00020484 Ry

     total magnetization       =     1.54 Bohr mag/cell
     absolute magnetization    =     2.73 Bohr mag/cell
[tb_dev] Currently allocated     7.03E+00 Mbytes, locked:    0 /  18
[tb_pin] Currently allocated     0.00E+00 Mbytes, locked:    0 /   0

     iteration # 73     ecut=    65.00 Ry     beta= 0.10
     Davidson diagonalization with overlap

---- Real-time Memory Report at c_bands before calling an iterative solver
          1240 MiB given to the printing process from OS
          1041 MiB allocation reported by mallinfo(arena+hblkhd)
         58419 MiB available memory on the node where the printing process lives
     GPU memory used/free/total (MiB): 1580 / 14700 / 16280
------------------
     ethr =  1.10E-07,  avg # of iterations =  1.7

     total cpu time spent up to now is      474.7 secs

     total energy              =    -406.10356472 Ry
     estimated scf accuracy    <       0.00014958 Ry

     total magnetization       =     1.52 Bohr mag/cell
     absolute magnetization    =     2.71 Bohr mag/cell
[tb_dev] Currently allocated     7.03E+00 Mbytes, locked:    0 /  18
[tb_pin] Currently allocated     0.00E+00 Mbytes, locked:    0 /   0

     iteration # 74     ecut=    65.00 Ry     beta= 0.10
     Davidson diagonalization with overlap

---- Real-time Memory Report at c_bands before calling an iterative solver
          1240 MiB given to the printing process from OS
          1041 MiB allocation reported by mallinfo(arena+hblkhd)
         58420 MiB available memory on the node where the printing process lives
     GPU memory used/free/total (MiB): 1580 / 14700 / 16280
------------------
     ethr =  1.10E-07,  avg # of iterations =  3.8

     total cpu time spent up to now is      478.0 secs

     total energy              =    -406.10350136 Ry
     estimated scf accuracy    <       0.00014431 Ry

     total magnetization       =     1.50 Bohr mag/cell
     absolute magnetization    =     2.68 Bohr mag/cell
[tb_dev] Currently allocated     7.03E+00 Mbytes, locked:    0 /  18
[tb_pin] Currently allocated     0.00E+00 Mbytes, locked:    0 /   0

     iteration # 75     ecut=    65.00 Ry     beta= 0.10
     Davidson diagonalization with overlap

---- Real-time Memory Report at c_bands before calling an iterative solver
          1240 MiB given to the printing process from OS
          1041 MiB allocation reported by mallinfo(arena+hblkhd)
         58420 MiB available memory on the node where the printing process lives
     GPU memory used/free/total (MiB): 1580 / 14700 / 16280
------------------
     ethr =  1.10E-07,  avg # of iterations =  2.8

     total cpu time spent up to now is      481.0 secs

     total energy              =    -406.10353704 Ry
     estimated scf accuracy    <       0.00015220 Ry

     total magnetization       =     1.54 Bohr mag/cell
     absolute magnetization    =     2.72 Bohr mag/cell
[tb_dev] Currently allocated     7.03E+00 Mbytes, locked:    0 /  18
[tb_pin] Currently allocated     0.00E+00 Mbytes, locked:    0 /   0

     iteration # 76     ecut=    65.00 Ry     beta= 0.10
     Davidson diagonalization with overlap

---- Real-time Memory Report at c_bands before calling an iterative solver
          1240 MiB given to the printing process from OS
          1041 MiB allocation reported by mallinfo(arena+hblkhd)
         58418 MiB available memory on the node where the printing process lives
     GPU memory used/free/total (MiB): 1580 / 14700 / 16280
------------------
     ethr =  1.10E-07,  avg # of iterations =  1.0

     total cpu time spent up to now is      483.4 secs

     total energy              =    -406.10152817 Ry
     estimated scf accuracy    <       0.00016033 Ry

     total magnetization       =     1.53 Bohr mag/cell
     absolute magnetization    =     2.71 Bohr mag/cell
[tb_dev] Currently allocated     7.03E+00 Mbytes, locked:    0 /  18
[tb_pin] Currently allocated     0.00E+00 Mbytes, locked:    0 /   0

     iteration # 77     ecut=    65.00 Ry     beta= 0.10
     Davidson diagonalization with overlap

---- Real-time Memory Report at c_bands before calling an iterative solver
          1240 MiB given to the printing process from OS
          1041 MiB allocation reported by mallinfo(arena+hblkhd)
         58417 MiB available memory on the node where the printing process lives
     GPU memory used/free/total (MiB): 1580 / 14700 / 16280
------------------
     ethr =  1.10E-07,  avg # of iterations =  9.8

     total cpu time spent up to now is      490.2 secs

     total energy              =    -406.10312242 Ry
     estimated scf accuracy    <       0.00012974 Ry

     total magnetization       =     1.80 Bohr mag/cell
     absolute magnetization    =     3.06 Bohr mag/cell
[tb_dev] Currently allocated     7.03E+00 Mbytes, locked:    0 /  18
[tb_pin] Currently allocated     0.00E+00 Mbytes, locked:    0 /   0

     iteration # 78     ecut=    65.00 Ry     beta= 0.10
     Davidson diagonalization with overlap

---- Real-time Memory Report at c_bands before calling an iterative solver
          1240 MiB given to the printing process from OS
          1041 MiB allocation reported by mallinfo(arena+hblkhd)
         58419 MiB available memory on the node where the printing process lives
     GPU memory used/free/total (MiB): 1580 / 14700 / 16280
------------------
     ethr =  1.10E-07,  avg # of iterations =  6.1

     total cpu time spent up to now is      494.9 secs

     total energy              =    -406.09989616 Ry
     estimated scf accuracy    <       0.00010317 Ry

     total magnetization       =     1.73 Bohr mag/cell
     absolute magnetization    =     2.97 Bohr mag/cell
[tb_dev] Currently allocated     7.03E+00 Mbytes, locked:    0 /  18
[tb_pin] Currently allocated     0.00E+00 Mbytes, locked:    0 /   0

     iteration # 79     ecut=    65.00 Ry     beta= 0.10
     Davidson diagonalization with overlap

---- Real-time Memory Report at c_bands before calling an iterative solver
          1240 MiB given to the printing process from OS
          1041 MiB allocation reported by mallinfo(arena+hblkhd)
         58417 MiB available memory on the node where the printing process lives
     GPU memory used/free/total (MiB): 1580 / 14700 / 16280
------------------
     c_bands:  1 eigenvalues not converged
     c_bands:  1 eigenvalues not converged
     ethr =  1.10E-07,  avg # of iterations = 12.1

     total cpu time spent up to now is      503.0 secs

     total energy              =    -406.10360444 Ry
     estimated scf accuracy    <       0.00026087 Ry

     total magnetization       =     1.30 Bohr mag/cell
     absolute magnetization    =     2.40 Bohr mag/cell
[tb_dev] Currently allocated     7.03E+00 Mbytes, locked:    0 /  18
[tb_pin] Currently allocated     0.00E+00 Mbytes, locked:    0 /   0

     iteration # 80     ecut=    65.00 Ry     beta= 0.10
     Davidson diagonalization with overlap

---- Real-time Memory Report at c_bands before calling an iterative solver
          1240 MiB given to the printing process from OS
          1041 MiB allocation reported by mallinfo(arena+hblkhd)
         58418 MiB available memory on the node where the printing process lives
     GPU memory used/free/total (MiB): 1580 / 14700 / 16280
------------------
     ethr =  1.10E-07,  avg # of iterations =  9.0

     total cpu time spent up to now is      509.2 secs

     total energy              =    -406.10422716 Ry
     estimated scf accuracy    <       0.00075179 Ry

     total magnetization       =     1.14 Bohr mag/cell
     absolute magnetization    =     2.17 Bohr mag/cell

     End of self-consistent calculation

     convergence NOT achieved after  80 iterations: stopping

     Writing config to output data dir ./out/aiida.save/
 
     init_run     :     10.19s CPU      2.19s WALL (       1 calls)
     electrons    :    655.86s CPU    506.34s WALL (       1 calls)

     Called by init_run:
     wfcinit      :      0.17s CPU      0.17s WALL (       1 calls)
                                        0.17s GPU  (       1 calls)
     potinit      :      0.43s CPU      0.12s WALL (       1 calls)
     hinit0       :      7.20s CPU      1.23s WALL (       1 calls)

     Called by electrons:
     c_bands      :    522.95s CPU    458.56s WALL (      81 calls)
     sum_band     :     33.13s CPU     38.35s WALL (      81 calls)
     v_of_rho     :     32.55s CPU      2.97s WALL (      81 calls)
     v_h          :      4.66s CPU      0.41s WALL (      81 calls)
     v_xc         :     27.89s CPU      2.56s WALL (      81 calls)
     newd         :     35.41s CPU      3.56s WALL (      81 calls)
                                        3.56s GPU  (      81 calls)
     mix_rho      :     19.65s CPU      1.89s WALL (      81 calls)

     Called by c_bands:
     init_us_2    :     24.59s CPU     24.09s WALL (   23328 calls)
     init_us_2:gp :     24.13s CPU     23.69s WALL (   23328 calls)
     cegterg      :    480.30s CPU    422.83s WALL (   11664 calls)

     Called by sum_band:
     sum_band:wei :      0.30s CPU      0.31s WALL (      81 calls)
                                        0.31s GPU  (      81 calls)
     sum_band:loo :     26.90s CPU     31.90s WALL (      81 calls)
                                       31.90s GPU  (      81 calls)
     sum_band:buf :      4.88s CPU      5.73s WALL (   11664 calls)
                                        5.66s GPU  (   11664 calls)
     sum_band:ini :      9.44s CPU     11.76s WALL (   11664 calls)
                                       11.70s GPU  (   11664 calls)
     sum_band:cal :      0.36s CPU      0.95s WALL (   11664 calls)
                                        0.77s GPU  (   11664 calls)
     sum_band:bec :      1.31s CPU      1.65s WALL (   11664 calls)
                                        1.57s GPU  (   11664 calls)
     addusdens    :      4.13s CPU      4.32s WALL (      81 calls)
                                        4.31s GPU  (      81 calls)
     addusd:skk   :      0.01s CPU      0.01s WALL (     162 calls)
                                        0.01s GPU  (     162 calls)

     Called by *egterg:
     cdiaghg      :    223.77s CPU    201.74s WALL (  113694 calls)
                                      201.00s GPU  (  113694 calls)
     cegterg:over :     14.71s CPU     13.10s WALL (  102318 calls)
     cegterg:upda :     24.37s CPU     21.78s WALL (  102318 calls)
     cegterg:last :      5.99s CPU      5.42s WALL (   43242 calls)
     h_psi        :    162.09s CPU    140.33s WALL (  113982 calls)
                                      139.71s GPU  (  113982 calls)
     s_psi        :      9.30s CPU     12.29s WALL (  113982 calls)
                                       11.42s GPU  (  113982 calls)
     g_psi        :      0.83s CPU      2.14s WALL (  102318 calls)
                                        1.49s GPU  (  102318 calls)

     Called by h_psi:
     h_psi:calbec :      4.35s CPU     11.29s WALL (  113982 calls)
                                       10.61s GPU  (  113982 calls)
     vloc_psi     :    121.90s CPU    105.96s WALL (  113982 calls)
                                      105.29s GPU  (  113982 calls)
     add_vuspsi   :     14.38s CPU     16.15s WALL (  113982 calls)
                                       15.48s GPU  (  113982 calls)

     General routines
     calbec       :      3.55s CPU      3.14s WALL (  125646 calls)
     fft          :      2.69s CPU      0.53s WALL (    2025 calls)
                                        0.42s GPU  (    1863 calls)
     ffts         :      0.06s CPU      0.03s WALL (     324 calls)
                                        0.01s GPU  (     162 calls)
     fftw         :      7.05s CPU     65.69s WALL (  308334 calls)
                                       63.99s GPU  (  308334 calls)
     interpolate  :      3.47s CPU      0.31s WALL (     162 calls)
     davcio       :      0.92s CPU      0.36s WALL (     306 calls)
 
     Parallel routines
 
     PWSCF        :  11m 9.71s CPU   8m29.56s WALL

 
   This run was terminated on:  18:12:24  23Oct2023            

=------------------------------------------------------------------------------=
   JOB DONE.
=------------------------------------------------------------------------------=
