
     Program PWSCF v.7.2 starts on 22Oct2023 at 17:17: 0 

     This program is part of the open-source Quantum ESPRESSO suite
     for quantum simulation of materials; please cite
         "P. Giannozzi et al., J. Phys.:Condens. Matter 21 395502 (2009);
         "P. Giannozzi et al., J. Phys.:Condens. Matter 29 465901 (2017);
         "P. Giannozzi et al., J. Chem. Phys. 152 154105 (2020);
          URL http://www.quantum-espresso.org", 
     in publications or presentations arising from this work. More details at
     http://www.quantum-espresso.org/quote

     Parallel version (MPI & OpenMP), running on      12 processor cores
     Number of MPI processes:                 1
     Threads/MPI process:                    12

     MPI processes distributed on     1 nodes
     60387 MiB available memory on the printing compute node when the environment starts
 
     Reading input from aiida.in

     Current dimensions of program PWSCF are:
     Max number of different atomic species (ntypx) = 10
     Max number of k-points (npk) =  40000
     Max angular momentum in pseudopotentials (lmaxx) =  4
     Message from routine setup:
     using ibrav=0 with symmetry is DISCOURAGED, use correct ibrav instead
 
     Subspace diagonalization in iterative solution of the eigenvalue problem:
     a serial algorithm will be used

 
     G-vector sticks info
     --------------------
     sticks:   dense  smooth     PW     G-vecs:    dense   smooth      PW
     Sum        6367    3205    871               335221   118693   17153
 
     Using Slab Decomposition
 


     bravais-lattice index     =            0
     lattice parameter (alat)  =      13.8728  a.u.
     unit-cell volume          =    1887.9030 (a.u.)^3
     number of atoms/cell      =            9
     number of atomic types    =            3
     number of electrons       =        62.00
     number of Kohn-Sham states=           37
     kinetic-energy cutoff     =      60.0000  Ry
     charge density cutoff     =     480.0000  Ry
     scf convergence threshold =      1.8E-09
     mixing beta               =       0.4000
     number of iterations used =            8  plain     mixing
     Exchange-correlation= SLA  PW   PSX  PSC
                           (   1   4  10   8   0   0   0)

     GPU acceleration is ACTIVE.


     GPU used by master process:

        Device Number: 0
        Device name: Tesla P100-PCIE-16GB
        Compute capability : 60
        Ratio of single to double precision performance  : 2
        Memory Clock Rate (KHz): 715000
        Memory Bus Width (bits): 4096
        Peak Memory Bandwidth (GB/s): 732.16

     celldm(1)=  13.872825  celldm(2)=   0.000000  celldm(3)=   0.000000
     celldm(4)=   0.000000  celldm(5)=   0.000000  celldm(6)=   0.000000

     crystal axes: (cart. coord. in units of alat)
               a(1) = (   0.000000   0.707107   0.707107 )  
               a(2) = (   0.707107   0.000000   0.707107 )  
               a(3) = (   0.707107   0.707107   0.000000 )  

     reciprocal axes: (cart. coord. in units 2 pi/alat)
               b(1) = ( -0.707107  0.707107  0.707107 )  
               b(2) = (  0.707107 -0.707107  0.707107 )  
               b(3) = (  0.707107  0.707107 -0.707107 )  


     PseudoPot. # 1 for Br read from file:
     ./pseudo/br_pbesol_v1.4.uspp.F.UPF
     MD5 check sum: 7bf6084e715f6bfd1944787c04c43e72
     Pseudo is Ultrasoft + core correction, Zval =  7.0
     Generated by new atomic code, or converted to UPF format
     Using radial grid of  879 points,  6 beta functions with: 
                l(1) =   0
                l(2) =   0
                l(3) =   1
                l(4) =   1
                l(5) =   2
                l(6) =   2
     Q(r) pseudized with  8 coefficients,  rinner =    1.200   1.200   1.200
                                                       1.200   1.200

     PseudoPot. # 2 for N  read from file:
     ./pseudo/N.pbesol-theos.UPF
     MD5 check sum: 1b64827339d390a5a22afef3ff345c9d
     Pseudo is Ultrasoft + core correction, Zval =  5.0
     Generated using "atomic" code by A. Dal Corso  v.5.1
     Using radial grid of 1085 points,  4 beta functions with: 
                l(1) =   0
                l(2) =   0
                l(3) =   1
                l(4) =   1
     Q(r) pseudized with 0 coefficients 


     PseudoPot. # 3 for Ni read from file:
     ./pseudo/ni_pbesol_v1.4.uspp.F.UPF
     MD5 check sum: de937c0c8ae4b350e69c02b76d8a83cb
     Pseudo is Ultrasoft + core correction, Zval = 18.0
     Generated by new atomic code, or converted to UPF format
     Using radial grid of  865 points,  6 beta functions with: 
                l(1) =   0
                l(2) =   0
                l(3) =   1
                l(4) =   1
                l(5) =   2
                l(6) =   2
     Q(r) pseudized with 10 coefficients,  rinner =    0.980   0.980   0.980
                                                       0.980   0.980

     atomic species   valence    mass     pseudopotential
        Br             7.00    79.90400     Br( 1.00)
        N              5.00    14.00670     N ( 1.00)
        Ni            18.00    58.69340     Ni( 1.00)

     Starting magnetic structure 
     atomic species   magnetization
        Br           0.100
        N            0.100
        Ni           0.278

     48 Sym. Ops., with inversion, found


                                    s                        frac. trans.

      isym =  1     identity                                     

 cryst.   s( 1) = (     1          0          0      )
                  (     0          1          0      )
                  (     0          0          1      )

 cart.    s( 1) = (  1.0000000 -0.0000000  0.0000000 )
                  ( -0.0000000  1.0000000  0.0000000 )
                  ( -0.0000000  0.0000000  1.0000000 )


      isym =  2     180 deg rotation - cart. axis [0,0,1]        

 cryst.   s( 2) = (     0          1         -1      )
                  (     1          0         -1      )
                  (     0          0         -1      )

 cart.    s( 2) = ( -1.0000000  0.0000000  0.0000000 )
                  (  0.0000000 -1.0000000  0.0000000 )
                  (  0.0000000 -0.0000000  1.0000000 )


      isym =  3     180 deg rotation - cart. axis [0,1,0]        

 cryst.   s( 3) = (     0         -1          1      )
                  (     0         -1          0      )
                  (     1         -1          0      )

 cart.    s( 3) = ( -1.0000000 -0.0000000 -0.0000000 )
                  (  0.0000000  1.0000000 -0.0000000 )
                  (  0.0000000  0.0000000 -1.0000000 )


      isym =  4     180 deg rotation - cart. axis [1,0,0]        

 cryst.   s( 4) = (    -1          0          0      )
                  (    -1          0          1      )
                  (    -1          1          0      )

 cart.    s( 4) = (  1.0000000  0.0000000 -0.0000000 )
                  ( -0.0000000 -1.0000000 -0.0000000 )
                  ( -0.0000000 -0.0000000 -1.0000000 )


      isym =  5     180 deg rotation - cart. axis [1,1,0]        

 cryst.   s( 5) = (    -1          0          1      )
                  (     0         -1          1      )
                  (     0          0          1      )

 cart.    s( 5) = ( -0.0000000  1.0000000 -0.0000000 )
                  (  1.0000000 -0.0000000 -0.0000000 )
                  (  0.0000000 -0.0000000 -1.0000000 )


      isym =  6     180 deg rotation - cart. axis [1,-1,0]       

 cryst.   s( 6) = (     0         -1          0      )
                  (    -1          0          0      )
                  (     0          0         -1      )

 cart.    s( 6) = (  0.0000000 -1.0000000 -0.0000000 )
                  ( -1.0000000  0.0000000 -0.0000000 )
                  ( -0.0000000  0.0000000 -1.0000000 )


      isym =  7      90 deg rotation - cart. axis [0,0,-1]       

 cryst.   s( 7) = (     0          1          0      )
                  (     0          1         -1      )
                  (    -1          1          0      )

 cart.    s( 7) = (  0.0000000  1.0000000  0.0000000 )
                  ( -1.0000000 -0.0000000  0.0000000 )
                  ( -0.0000000 -0.0000000  1.0000000 )


      isym =  8      90 deg rotation - cart. axis [0,0,1]        

 cryst.   s( 8) = (     1          0         -1      )
                  (     1          0          0      )
                  (     1         -1          0      )

 cart.    s( 8) = ( -0.0000000 -1.0000000  0.0000000 )
                  (  1.0000000  0.0000000  0.0000000 )
                  (  0.0000000  0.0000000  1.0000000 )


      isym =  9     180 deg rotation - cart. axis [1,0,1]        

 cryst.   s( 9) = (    -1          1          0      )
                  (     0          1          0      )
                  (     0          1         -1      )

 cart.    s( 9) = (  0.0000000  0.0000000  1.0000000 )
                  (  0.0000000 -1.0000000 -0.0000000 )
                  (  1.0000000 -0.0000000 -0.0000000 )


      isym = 10     180 deg rotation - cart. axis [-1,0,1]       

 cryst.   s(10) = (     0          0         -1      )
                  (     0         -1          0      )
                  (    -1          0          0      )

 cart.    s(10) = ( -0.0000000  0.0000000 -1.0000000 )
                  ( -0.0000000 -1.0000000  0.0000000 )
                  ( -1.0000000 -0.0000000  0.0000000 )


      isym = 11      90 deg rotation - cart. axis [0,1,0]        

 cryst.   s(11) = (     0          0          1      )
                  (    -1          0          1      )
                  (     0         -1          1      )

 cart.    s(11) = ( -0.0000000 -0.0000000  1.0000000 )
                  ( -0.0000000  1.0000000 -0.0000000 )
                  ( -1.0000000  0.0000000 -0.0000000 )


      isym = 12      90 deg rotation - cart. axis [0,-1,0]       

 cryst.   s(12) = (     1         -1          0      )
                  (     1          0         -1      )
                  (     1          0          0      )

 cart.    s(12) = (  0.0000000 -0.0000000 -1.0000000 )
                  (  0.0000000  1.0000000  0.0000000 )
                  (  1.0000000  0.0000000  0.0000000 )


      isym = 13     180 deg rotation - cart. axis [0,1,1]        

 cryst.   s(13) = (     1          0          0      )
                  (     1         -1          0      )
                  (     1          0         -1      )

 cart.    s(13) = ( -1.0000000  0.0000000 -0.0000000 )
                  (  0.0000000  0.0000000  1.0000000 )
                  (  0.0000000  1.0000000  0.0000000 )


      isym = 14     180 deg rotation - cart. axis [0,1,-1]       

 cryst.   s(14) = (    -1          0          0      )
                  (     0          0         -1      )
                  (     0         -1          0      )

 cart.    s(14) = ( -1.0000000 -0.0000000  0.0000000 )
                  (  0.0000000 -0.0000000 -1.0000000 )
                  (  0.0000000 -1.0000000 -0.0000000 )


      isym = 15      90 deg rotation - cart. axis [-1,0,0]       

 cryst.   s(15) = (     0         -1          1      )
                  (     0          0          1      )
                  (    -1          0          1      )

 cart.    s(15) = (  1.0000000 -0.0000000 -0.0000000 )
                  ( -0.0000000 -0.0000000  1.0000000 )
                  ( -0.0000000 -1.0000000  0.0000000 )


      isym = 16      90 deg rotation - cart. axis [1,0,0]        

 cryst.   s(16) = (     0          1         -1      )
                  (    -1          1          0      )
                  (     0          1          0      )

 cart.    s(16) = (  1.0000000  0.0000000  0.0000000 )
                  ( -0.0000000  0.0000000 -1.0000000 )
                  ( -0.0000000  1.0000000 -0.0000000 )


      isym = 17     120 deg rotation - cart. axis [-1,-1,-1]     

 cryst.   s(17) = (     0          0          1      )
                  (     1          0          0      )
                  (     0          1          0      )

 cart.    s(17) = (  0.0000000  1.0000000 -0.0000000 )
                  (  0.0000000 -0.0000000  1.0000000 )
                  (  1.0000000 -0.0000000  0.0000000 )


      isym = 18     120 deg rotation - cart. axis [-1,1,1]       

 cryst.   s(18) = (     1         -1          0      )
                  (     0         -1          1      )
                  (     0         -1          0      )

 cart.    s(18) = ( -0.0000000 -1.0000000 -0.0000000 )
                  ( -0.0000000  0.0000000  1.0000000 )
                  ( -1.0000000  0.0000000  0.0000000 )


      isym = 19     120 deg rotation - cart. axis [1,1,-1]       

 cryst.   s(19) = (    -1          1          0      )
                  (    -1          0          0      )
                  (    -1          0          1      )

 cart.    s(19) = ( -0.0000000  1.0000000  0.0000000 )
                  ( -0.0000000 -0.0000000 -1.0000000 )
                  ( -1.0000000 -0.0000000 -0.0000000 )


      isym = 20     120 deg rotation - cart. axis [1,-1,1]       

 cryst.   s(20) = (     0          0         -1      )
                  (     0          1         -1      )
                  (     1          0         -1      )

 cart.    s(20) = (  0.0000000 -1.0000000  0.0000000 )
                  (  0.0000000  0.0000000 -1.0000000 )
                  (  1.0000000  0.0000000 -0.0000000 )


      isym = 21     120 deg rotation - cart. axis [1,1,1]        

 cryst.   s(21) = (     0          1          0      )
                  (     0          0          1      )
                  (     1          0          0      )

 cart.    s(21) = ( -0.0000000  0.0000000  1.0000000 )
                  (  1.0000000  0.0000000 -0.0000000 )
                  (  0.0000000  1.0000000 -0.0000000 )


      isym = 22     120 deg rotation - cart. axis [-1,1,-1]      

 cryst.   s(22) = (    -1          0          1      )
                  (    -1          1          0      )
                  (    -1          0          0      )

 cart.    s(22) = (  0.0000000 -0.0000000  1.0000000 )
                  ( -1.0000000 -0.0000000 -0.0000000 )
                  ( -0.0000000 -1.0000000 -0.0000000 )


      isym = 23     120 deg rotation - cart. axis [1,-1,-1]      

 cryst.   s(23) = (     1          0         -1      )
                  (     0          0         -1      )
                  (     0          1         -1      )

 cart.    s(23) = (  0.0000000  0.0000000 -1.0000000 )
                  ( -1.0000000  0.0000000  0.0000000 )
                  ( -0.0000000  1.0000000  0.0000000 )


      isym = 24     120 deg rotation - cart. axis [-1,-1,1]      

 cryst.   s(24) = (     0         -1          0      )
                  (     1         -1          0      )
                  (     0         -1          1      )

 cart.    s(24) = ( -0.0000000 -0.0000000 -1.0000000 )
                  (  1.0000000 -0.0000000  0.0000000 )
                  (  0.0000000 -1.0000000  0.0000000 )


      isym = 25     inversion                                    

 cryst.   s(25) = (    -1          0          0      )
                  (     0         -1          0      )
                  (     0          0         -1      )

 cart.    s(25) = ( -1.0000000  0.0000000 -0.0000000 )
                  (  0.0000000 -1.0000000 -0.0000000 )
                  (  0.0000000 -0.0000000 -1.0000000 )


      isym = 26     inv. 180 deg rotation - cart. axis [0,0,1]   

 cryst.   s(26) = (     0         -1          1      )
                  (    -1          0          1      )
                  (     0          0          1      )

 cart.    s(26) = (  1.0000000 -0.0000000 -0.0000000 )
                  ( -0.0000000  1.0000000 -0.0000000 )
                  ( -0.0000000  0.0000000 -1.0000000 )


      isym = 27     inv. 180 deg rotation - cart. axis [0,1,0]   

 cryst.   s(27) = (     0          1         -1      )
                  (     0          1          0      )
                  (    -1          1          0      )

 cart.    s(27) = (  1.0000000  0.0000000  0.0000000 )
                  ( -0.0000000 -1.0000000  0.0000000 )
                  ( -0.0000000 -0.0000000  1.0000000 )


      isym = 28     inv. 180 deg rotation - cart. axis [1,0,0]   

 cryst.   s(28) = (     1          0          0      )
                  (     1          0         -1      )
                  (     1         -1          0      )

 cart.    s(28) = ( -1.0000000 -0.0000000  0.0000000 )
                  (  0.0000000  1.0000000  0.0000000 )
                  (  0.0000000  0.0000000  1.0000000 )


      isym = 29     inv. 180 deg rotation - cart. axis [1,1,0]   

 cryst.   s(29) = (     1          0         -1      )
                  (     0          1         -1      )
                  (     0          0         -1      )

 cart.    s(29) = (  0.0000000 -1.0000000  0.0000000 )
                  ( -1.0000000  0.0000000  0.0000000 )
                  ( -0.0000000  0.0000000  1.0000000 )


      isym = 30     inv. 180 deg rotation - cart. axis [1,-1,0]  

 cryst.   s(30) = (     0          1          0      )
                  (     1          0          0      )
                  (     0          0          1      )

 cart.    s(30) = ( -0.0000000  1.0000000  0.0000000 )
                  (  1.0000000 -0.0000000  0.0000000 )
                  (  0.0000000 -0.0000000  1.0000000 )


      isym = 31     inv.  90 deg rotation - cart. axis [0,0,-1]  

 cryst.   s(31) = (     0         -1          0      )
                  (     0         -1          1      )
                  (     1         -1          0      )

 cart.    s(31) = ( -0.0000000 -1.0000000 -0.0000000 )
                  (  1.0000000  0.0000000 -0.0000000 )
                  (  0.0000000  0.0000000 -1.0000000 )


      isym = 32     inv.  90 deg rotation - cart. axis [0,0,1]   

 cryst.   s(32) = (    -1          0          1      )
                  (    -1          0          0      )
                  (    -1          1          0      )

 cart.    s(32) = (  0.0000000  1.0000000 -0.0000000 )
                  ( -1.0000000 -0.0000000 -0.0000000 )
                  ( -0.0000000 -0.0000000 -1.0000000 )


      isym = 33     inv. 180 deg rotation - cart. axis [1,0,1]   

 cryst.   s(33) = (     1         -1          0      )
                  (     0         -1          0      )
                  (     0         -1          1      )

 cart.    s(33) = ( -0.0000000 -0.0000000 -1.0000000 )
                  ( -0.0000000  1.0000000  0.0000000 )
                  ( -1.0000000  0.0000000  0.0000000 )


      isym = 34     inv. 180 deg rotation - cart. axis [-1,0,1]  

 cryst.   s(34) = (     0          0          1      )
                  (     0          1          0      )
                  (     1          0          0      )

 cart.    s(34) = (  0.0000000 -0.0000000  1.0000000 )
                  (  0.0000000  1.0000000 -0.0000000 )
                  (  1.0000000  0.0000000 -0.0000000 )


      isym = 35     inv.  90 deg rotation - cart. axis [0,1,0]   

 cryst.   s(35) = (     0          0         -1      )
                  (     1          0         -1      )
                  (     0          1         -1      )

 cart.    s(35) = (  0.0000000  0.0000000 -1.0000000 )
                  (  0.0000000 -1.0000000  0.0000000 )
                  (  1.0000000 -0.0000000  0.0000000 )


      isym = 36     inv.  90 deg rotation - cart. axis [0,-1,0]  

 cryst.   s(36) = (    -1          1          0      )
                  (    -1          0          1      )
                  (    -1          0          0      )

 cart.    s(36) = ( -0.0000000  0.0000000  1.0000000 )
                  ( -0.0000000 -1.0000000 -0.0000000 )
                  ( -1.0000000 -0.0000000 -0.0000000 )


      isym = 37     inv. 180 deg rotation - cart. axis [0,1,1]   

 cryst.   s(37) = (    -1          0          0      )
                  (    -1          1          0      )
                  (    -1          0          1      )

 cart.    s(37) = (  1.0000000 -0.0000000  0.0000000 )
                  ( -0.0000000 -0.0000000 -1.0000000 )
                  ( -0.0000000 -1.0000000 -0.0000000 )


      isym = 38     inv. 180 deg rotation - cart. axis [0,1,-1]  

 cryst.   s(38) = (     1          0          0      )
                  (     0          0          1      )
                  (     0          1          0      )

 cart.    s(38) = (  1.0000000  0.0000000 -0.0000000 )
                  ( -0.0000000  0.0000000  1.0000000 )
                  ( -0.0000000  1.0000000  0.0000000 )


      isym = 39     inv.  90 deg rotation - cart. axis [-1,0,0]  

 cryst.   s(39) = (     0          1         -1      )
                  (     0          0         -1      )
                  (     1          0         -1      )

 cart.    s(39) = ( -1.0000000  0.0000000  0.0000000 )
                  (  0.0000000  0.0000000 -1.0000000 )
                  (  0.0000000  1.0000000 -0.0000000 )


      isym = 40     inv.  90 deg rotation - cart. axis [1,0,0]   

 cryst.   s(40) = (     0         -1          1      )
                  (     1         -1          0      )
                  (     0         -1          0      )

 cart.    s(40) = ( -1.0000000 -0.0000000 -0.0000000 )
                  (  0.0000000 -0.0000000  1.0000000 )
                  (  0.0000000 -1.0000000  0.0000000 )


      isym = 41     inv. 120 deg rotation - cart. axis [-1,-1,-1]

 cryst.   s(41) = (     0          0         -1      )
                  (    -1          0          0      )
                  (     0         -1          0      )

 cart.    s(41) = ( -0.0000000 -1.0000000  0.0000000 )
                  ( -0.0000000  0.0000000 -1.0000000 )
                  ( -1.0000000  0.0000000 -0.0000000 )


      isym = 42     inv. 120 deg rotation - cart. axis [-1,1,1]  

 cryst.   s(42) = (    -1          1          0      )
                  (     0          1         -1      )
                  (     0          1          0      )

 cart.    s(42) = (  0.0000000  1.0000000  0.0000000 )
                  (  0.0000000 -0.0000000 -1.0000000 )
                  (  1.0000000 -0.0000000 -0.0000000 )


      isym = 43     inv. 120 deg rotation - cart. axis [1,1,-1]  

 cryst.   s(43) = (     1         -1          0      )
                  (     1          0          0      )
                  (     1          0         -1      )

 cart.    s(43) = (  0.0000000 -1.0000000 -0.0000000 )
                  (  0.0000000  0.0000000  1.0000000 )
                  (  1.0000000  0.0000000  0.0000000 )


      isym = 44     inv. 120 deg rotation - cart. axis [1,-1,1]  

 cryst.   s(44) = (     0          0          1      )
                  (     0         -1          1      )
                  (    -1          0          1      )

 cart.    s(44) = ( -0.0000000  1.0000000 -0.0000000 )
                  ( -0.0000000 -0.0000000  1.0000000 )
                  ( -1.0000000 -0.0000000  0.0000000 )


      isym = 45     inv. 120 deg rotation - cart. axis [1,1,1]   

 cryst.   s(45) = (     0         -1          0      )
                  (     0          0         -1      )
                  (    -1          0          0      )

 cart.    s(45) = (  0.0000000 -0.0000000 -1.0000000 )
                  ( -1.0000000 -0.0000000  0.0000000 )
                  ( -0.0000000 -1.0000000  0.0000000 )


      isym = 46     inv. 120 deg rotation - cart. axis [-1,1,-1] 

 cryst.   s(46) = (     1          0         -1      )
                  (     1         -1          0      )
                  (     1          0          0      )

 cart.    s(46) = ( -0.0000000  0.0000000 -1.0000000 )
                  (  1.0000000  0.0000000  0.0000000 )
                  (  0.0000000  1.0000000  0.0000000 )


      isym = 47     inv. 120 deg rotation - cart. axis [1,-1,-1] 

 cryst.   s(47) = (    -1          0          1      )
                  (     0          0          1      )
                  (     0         -1          1      )

 cart.    s(47) = ( -0.0000000 -0.0000000  1.0000000 )
                  (  1.0000000 -0.0000000 -0.0000000 )
                  (  0.0000000 -1.0000000 -0.0000000 )


      isym = 48     inv. 120 deg rotation - cart. axis [-1,-1,1] 

 cryst.   s(48) = (     0          1          0      )
                  (    -1          1          0      )
                  (     0          1         -1      )

 cart.    s(48) = (  0.0000000  0.0000000  1.0000000 )
                  ( -1.0000000  0.0000000 -0.0000000 )
                  ( -0.0000000  1.0000000 -0.0000000 )


   Cartesian axes

     site n.     atom                  positions (alat units)
         1           Ni  tau(   1) = (   0.0000000   0.0000000   0.0000000  )
         2           Br  tau(   2) = (   0.3535534   0.3535534   1.0606602  )
         3           Br  tau(   3) = (   0.3535534   1.0606602   1.0606602  )
         4           N   tau(   4) = (   1.0787621  -0.0000000  -0.0000000  )
         5           N   tau(   5) = (   0.7071068   0.3716553  -0.0000000  )
         6           N   tau(   6) = (   0.0000000   0.0000000   1.0787621  )
         7           N   tau(   7) = (   0.7071068  -0.0000000   1.0425582  )
         8           N   tau(   8) = (   0.7071068   1.0425582  -0.0000000  )
         9           N   tau(   9) = (   0.3354515   0.0000000   0.0000000  )

   Crystallographic axes

     site n.     atom                  positions (cryst. coord.)
         1           Ni  tau(   1) = (  0.0000000  0.0000000  0.0000000  )
         2           Br  tau(   2) = (  0.7500000  0.7500000 -0.2500000  )
         3           Br  tau(   3) = (  1.2500000  0.2500000  0.2500000  )
         4           N   tau(   4) = ( -0.7628000  0.7628000  0.7628000  )
         5           N   tau(   5) = ( -0.2372000  0.2372000  0.7628000  )
         6           N   tau(   6) = (  0.7628000  0.7628000 -0.7628000  )
         7           N   tau(   7) = (  0.2372000  1.2372000 -0.2372000  )
         8           N   tau(   8) = (  0.2372000 -0.2372000  1.2372000  )
         9           N   tau(   9) = ( -0.2372000  0.2372000  0.2372000  )

     number of k points=    20  Marzari-Vanderbilt smearing, width (Ry)=  0.0100
                       cart. coord. in units 2pi/alat
        k(    1) = (   0.0000000   0.0000000   0.0000000), wk =   0.0029155
        k(    2) = (   0.1010153   0.1010153  -0.1010153), wk =   0.0233236
        k(    3) = (   0.2020305   0.2020305  -0.2020305), wk =   0.0233236
        k(    4) = (   0.3030458   0.3030458  -0.3030458), wk =   0.0233236
        k(    5) = (   0.2020305  -0.0000000   0.0000000), wk =   0.0174927
        k(    6) = (   0.3030458   0.1010153  -0.1010153), wk =   0.0699708
        k(    7) = (   0.4040610   0.2020305  -0.2020305), wk =   0.0699708
        k(    8) = (  -0.2020305  -0.4040610   0.4040610), wk =   0.0699708
        k(    9) = (  -0.1010153  -0.3030458   0.3030458), wk =   0.0699708
        k(   10) = (  -0.0000000  -0.2020305   0.2020305), wk =   0.0349854
        k(   11) = (   0.4040610  -0.0000000   0.0000000), wk =   0.0174927
        k(   12) = (   0.5050763   0.1010153  -0.1010153), wk =   0.0699708
        k(   13) = (  -0.1010153  -0.5050763   0.5050763), wk =   0.0699708
        k(   14) = (   0.0000000  -0.4040610   0.4040610), wk =   0.0349854
        k(   15) = (   0.6060915  -0.0000000   0.0000000), wk =   0.0174927
        k(   16) = (  -0.0000000  -0.6060915   0.6060915), wk =   0.0349854
        k(   17) = (   0.4040610   0.2020305   0.0000000), wk =   0.0699708
        k(   18) = (  -0.2020305  -0.4040610   0.6060915), wk =   0.1399417
        k(   19) = (  -0.1010153  -0.5050763   0.7071068), wk =   0.0699708
        k(   20) = (  -0.0000000  -0.4040610   0.6060915), wk =   0.0699708

                       cryst. coord.
        k(    1) = (   0.0000000   0.0000000   0.0000000), wk =   0.0029155
        k(    2) = (   0.0000000   0.0000000   0.1428571), wk =   0.0233236
        k(    3) = (   0.0000000   0.0000000   0.2857143), wk =   0.0233236
        k(    4) = (  -0.0000000  -0.0000000   0.4285714), wk =   0.0233236
        k(    5) = (  -0.0000000   0.1428571   0.1428571), wk =   0.0174927
        k(    6) = (  -0.0000000   0.1428571   0.2857143), wk =   0.0699708
        k(    7) = (  -0.0000000   0.1428571   0.4285714), wk =   0.0699708
        k(    8) = (  -0.0000000   0.1428571  -0.4285714), wk =   0.0699708
        k(    9) = (   0.0000000   0.1428571  -0.2857143), wk =   0.0699708
        k(   10) = (  -0.0000000   0.1428571  -0.1428571), wk =   0.0349854
        k(   11) = (  -0.0000000   0.2857143   0.2857143), wk =   0.0174927
        k(   12) = (  -0.0000000   0.2857143   0.4285714), wk =   0.0699708
        k(   13) = (  -0.0000000   0.2857143  -0.4285714), wk =   0.0699708
        k(   14) = (  -0.0000000   0.2857143  -0.2857143), wk =   0.0349854
        k(   15) = (   0.0000000   0.4285714   0.4285714), wk =   0.0174927
        k(   16) = (   0.0000000   0.4285714  -0.4285714), wk =   0.0349854
        k(   17) = (   0.1428571   0.2857143   0.4285714), wk =   0.0699708
        k(   18) = (   0.1428571   0.2857143  -0.4285714), wk =   0.1399417
        k(   19) = (   0.1428571   0.4285714  -0.4285714), wk =   0.0699708
        k(   20) = (   0.1428571   0.4285714  -0.2857143), wk =   0.0699708

     Dense  grid:   335221 G-vectors     FFT dimensions: ( 100, 100, 100)

     Smooth grid:   118693 G-vectors     FFT dimensions: (  72,  72,  72)

     Dynamical RAM for                 wfc:       8.37 MB

     Dynamical RAM for     wfc (w. buffer):     342.98 MB

     Dynamical RAM for           str. fact:      15.35 MB

     Dynamical RAM for           local pot:       0.00 MB

     Dynamical RAM for          nlocal pot:      23.06 MB

     Dynamical RAM for                qrad:       5.27 MB

     Dynamical RAM for          rho,v,vnew:      76.47 MB

     Dynamical RAM for               rhoin:      25.49 MB

     Dynamical RAM for            rho*nmix:     163.68 MB

     Dynamical RAM for           G-vectors:      20.09 MB

     Dynamical RAM for          h,s,v(r/c):       0.25 MB

     Dynamical RAM for          <psi|beta>:       0.06 MB

     Dynamical RAM for                 psi:      16.73 MB

     Dynamical RAM for                hpsi:      16.73 MB

     Dynamical RAM for                spsi:      16.73 MB

     Dynamical RAM for      wfcinit/wfcrot:      20.39 MB

     Dynamical RAM for           addusdens:     987.21 MB

     Dynamical RAM for          addusforce:    1038.41 MB

     Dynamical RAM for         addusstress:    1035.80 MB

     Estimated static dynamical RAM per process >     574.94 MB

     Estimated max dynamical RAM per process >       1.74 GB

     Check: negative core charge=   -0.000001
     Generating pointlists ...
     new r_m :   0.2064 (alat units)  2.8631 (a.u.) for type    1
     new r_m :   0.1384 (alat units)  1.9196 (a.u.) for type    2
     new r_m :   0.1384 (alat units)  1.9196 (a.u.) for type    3

     Initial potential from superposition of free atoms

     starting charge      59.9999, renormalised to      62.0000
     Starting wfcs are   45 randomized atomic wfcs

     total cpu time spent up to now is        5.1 secs

     per-process dynamical memory:  1210.2 Mb

     Self-consistent Calculation
[tb_dev] Currently allocated     8.27E+00 Mbytes, locked:    0 /  11
[tb_pin] Currently allocated     0.00E+00 Mbytes, locked:    0 /   0

     iteration #  1     ecut=    60.00 Ry     beta= 0.40
     Davidson diagonalization with overlap

---- Real-time Memory Report at c_bands before calling an iterative solver
          1395 MiB given to the printing process from OS
          1209 MiB allocation reported by mallinfo(arena+hblkhd)
         58504 MiB available memory on the node where the printing process lives
     GPU memory used/free/total (MiB): 1494 / 14786 / 16280
------------------
     ethr =  1.00E-02,  avg # of iterations =  2.0

     total cpu time spent up to now is        7.5 secs

     total energy              =    -533.04094862 Ry
     estimated scf accuracy    <      16.73327482 Ry

     total magnetization       =     9.02 Bohr mag/cell
     absolute magnetization    =     9.31 Bohr mag/cell
[tb_dev] Currently allocated     8.27E+00 Mbytes, locked:    0 /   9
[tb_pin] Currently allocated     0.00E+00 Mbytes, locked:    0 /   0

     iteration #  2     ecut=    60.00 Ry     beta= 0.40
     Davidson diagonalization with overlap

---- Real-time Memory Report at c_bands before calling an iterative solver
          1507 MiB given to the printing process from OS
          1281 MiB allocation reported by mallinfo(arena+hblkhd)
         58438 MiB available memory on the node where the printing process lives
     GPU memory used/free/total (MiB): 2808 / 13472 / 16280
------------------
     ethr =  1.00E-02,  avg # of iterations =  7.5

     total cpu time spent up to now is       11.7 secs

     total energy              =    -542.36282197 Ry
     estimated scf accuracy    <      34.51725582 Ry

     total magnetization       =     5.66 Bohr mag/cell
     absolute magnetization    =     5.73 Bohr mag/cell
[tb_dev] Currently allocated     8.27E+00 Mbytes, locked:    0 /   9
[tb_pin] Currently allocated     0.00E+00 Mbytes, locked:    0 /   0

     iteration #  3     ecut=    60.00 Ry     beta= 0.40
     Davidson diagonalization with overlap

---- Real-time Memory Report at c_bands before calling an iterative solver
          1515 MiB given to the printing process from OS
          1289 MiB allocation reported by mallinfo(arena+hblkhd)
         58432 MiB available memory on the node where the printing process lives
     GPU memory used/free/total (MiB): 3230 / 13050 / 16280
------------------
     ethr =  1.00E-02,  avg # of iterations =  2.7

     total cpu time spent up to now is       14.3 secs

     total energy              =    -538.31098900 Ry
     estimated scf accuracy    <      13.93149323 Ry

     total magnetization       =     7.73 Bohr mag/cell
     absolute magnetization    =     7.77 Bohr mag/cell
[tb_dev] Currently allocated     8.27E+00 Mbytes, locked:    0 /   9
[tb_pin] Currently allocated     0.00E+00 Mbytes, locked:    0 /   0

     iteration #  4     ecut=    60.00 Ry     beta= 0.40
     Davidson diagonalization with overlap

---- Real-time Memory Report at c_bands before calling an iterative solver
          1526 MiB given to the printing process from OS
          1300 MiB allocation reported by mallinfo(arena+hblkhd)
         58423 MiB available memory on the node where the printing process lives
     GPU memory used/free/total (MiB): 3230 / 13050 / 16280
------------------
     ethr =  1.00E-02,  avg # of iterations =  7.6

     total cpu time spent up to now is       18.3 secs

     total energy              =    -543.94025890 Ry
     estimated scf accuracy    <      54.07719385 Ry

     total magnetization       =     6.72 Bohr mag/cell
     absolute magnetization    =     6.87 Bohr mag/cell
[tb_dev] Currently allocated     8.27E+00 Mbytes, locked:    0 /   9
[tb_pin] Currently allocated     0.00E+00 Mbytes, locked:    0 /   0

     iteration #  5     ecut=    60.00 Ry     beta= 0.40
     Davidson diagonalization with overlap

---- Real-time Memory Report at c_bands before calling an iterative solver
          1534 MiB given to the printing process from OS
          1307 MiB allocation reported by mallinfo(arena+hblkhd)
         58415 MiB available memory on the node where the printing process lives
     GPU memory used/free/total (MiB): 3230 / 13050 / 16280
------------------
     ethr =  1.00E-02,  avg # of iterations =  1.6

     total cpu time spent up to now is       20.7 secs

     total energy              =    -538.47809391 Ry
     estimated scf accuracy    <      52.75988982 Ry

     total magnetization       =     6.77 Bohr mag/cell
     absolute magnetization    =     7.04 Bohr mag/cell
[tb_dev] Currently allocated     8.27E+00 Mbytes, locked:    0 /   9
[tb_pin] Currently allocated     0.00E+00 Mbytes, locked:    0 /   0

     iteration #  6     ecut=    60.00 Ry     beta= 0.40
     Davidson diagonalization with overlap

---- Real-time Memory Report at c_bands before calling an iterative solver
          1537 MiB given to the printing process from OS
          1310 MiB allocation reported by mallinfo(arena+hblkhd)
         58412 MiB available memory on the node where the printing process lives
     GPU memory used/free/total (MiB): 3230 / 13050 / 16280
------------------
     ethr =  1.00E-02,  avg # of iterations =  4.8

     total cpu time spent up to now is       23.6 secs

     total energy              =    -541.76201783 Ry
     estimated scf accuracy    <       0.82504916 Ry

     total magnetization       =    10.81 Bohr mag/cell
     absolute magnetization    =    12.64 Bohr mag/cell
[tb_dev] Currently allocated     8.27E+00 Mbytes, locked:    0 /   9
[tb_pin] Currently allocated     0.00E+00 Mbytes, locked:    0 /   0

     iteration #  7     ecut=    60.00 Ry     beta= 0.40
     Davidson diagonalization with overlap

---- Real-time Memory Report at c_bands before calling an iterative solver
          1548 MiB given to the printing process from OS
          1321 MiB allocation reported by mallinfo(arena+hblkhd)
         58402 MiB available memory on the node where the printing process lives
     GPU memory used/free/total (MiB): 3230 / 13050 / 16280
------------------
     ethr =  1.33E-03,  avg # of iterations =  6.5

     total cpu time spent up to now is       27.1 secs

     total energy              =    -542.13945046 Ry
     estimated scf accuracy    <       0.95727641 Ry

     total magnetization       =    11.55 Bohr mag/cell
     absolute magnetization    =    11.74 Bohr mag/cell
[tb_dev] Currently allocated     8.27E+00 Mbytes, locked:    0 /   9
[tb_pin] Currently allocated     0.00E+00 Mbytes, locked:    0 /   0

     iteration #  8     ecut=    60.00 Ry     beta= 0.40
     Davidson diagonalization with overlap

---- Real-time Memory Report at c_bands before calling an iterative solver
          1559 MiB given to the printing process from OS
          1332 MiB allocation reported by mallinfo(arena+hblkhd)
         58385 MiB available memory on the node where the printing process lives
     GPU memory used/free/total (MiB): 3230 / 13050 / 16280
------------------
     ethr =  1.33E-03,  avg # of iterations =  1.3

     total cpu time spent up to now is       29.4 secs

     total energy              =    -542.23375749 Ry
     estimated scf accuracy    <       0.94306365 Ry

     total magnetization       =    12.16 Bohr mag/cell
     absolute magnetization    =    12.29 Bohr mag/cell
[tb_dev] Currently allocated     8.27E+00 Mbytes, locked:    0 /   9
[tb_pin] Currently allocated     0.00E+00 Mbytes, locked:    0 /   0

     iteration #  9     ecut=    60.00 Ry     beta= 0.40
     Davidson diagonalization with overlap

---- Real-time Memory Report at c_bands before calling an iterative solver
          1566 MiB given to the printing process from OS
          1340 MiB allocation reported by mallinfo(arena+hblkhd)
         58378 MiB available memory on the node where the printing process lives
     GPU memory used/free/total (MiB): 3230 / 13050 / 16280
------------------
     ethr =  1.33E-03,  avg # of iterations =  1.3

     total cpu time spent up to now is       31.7 secs

     total energy              =    -542.04182974 Ry
     estimated scf accuracy    <       0.86770739 Ry

     total magnetization       =    12.12 Bohr mag/cell
     absolute magnetization    =    12.34 Bohr mag/cell
[tb_dev] Currently allocated     8.27E+00 Mbytes, locked:    0 /   9
[tb_pin] Currently allocated     0.00E+00 Mbytes, locked:    0 /   0

     iteration # 10     ecut=    60.00 Ry     beta= 0.40
     Davidson diagonalization with overlap

---- Real-time Memory Report at c_bands before calling an iterative solver
          1574 MiB given to the printing process from OS
          1347 MiB allocation reported by mallinfo(arena+hblkhd)
         58372 MiB available memory on the node where the printing process lives
     GPU memory used/free/total (MiB): 3230 / 13050 / 16280
------------------
     ethr =  1.33E-03,  avg # of iterations =  7.1

     total cpu time spent up to now is       35.2 secs

     total energy              =    -542.31824608 Ry
     estimated scf accuracy    <       1.05545010 Ry

     total magnetization       =    11.28 Bohr mag/cell
     absolute magnetization    =    13.87 Bohr mag/cell
[tb_dev] Currently allocated     8.27E+00 Mbytes, locked:    0 /   9
[tb_pin] Currently allocated     0.00E+00 Mbytes, locked:    0 /   0

     iteration # 11     ecut=    60.00 Ry     beta= 0.40
     Davidson diagonalization with overlap

---- Real-time Memory Report at c_bands before calling an iterative solver
          1574 MiB given to the printing process from OS
          1347 MiB allocation reported by mallinfo(arena+hblkhd)
         58375 MiB available memory on the node where the printing process lives
     GPU memory used/free/total (MiB): 3230 / 13050 / 16280
------------------
     ethr =  1.33E-03,  avg # of iterations =  1.1

     total cpu time spent up to now is       37.5 secs

     total energy              =    -542.34521548 Ry
     estimated scf accuracy    <       0.84786210 Ry

     total magnetization       =    11.49 Bohr mag/cell
     absolute magnetization    =    14.02 Bohr mag/cell
[tb_dev] Currently allocated     8.27E+00 Mbytes, locked:    0 /   9
[tb_pin] Currently allocated     0.00E+00 Mbytes, locked:    0 /   0

     iteration # 12     ecut=    60.00 Ry     beta= 0.40
     Davidson diagonalization with overlap

---- Real-time Memory Report at c_bands before calling an iterative solver
          1574 MiB given to the printing process from OS
          1347 MiB allocation reported by mallinfo(arena+hblkhd)
         58376 MiB available memory on the node where the printing process lives
     GPU memory used/free/total (MiB): 3230 / 13050 / 16280
------------------
     ethr =  1.33E-03,  avg # of iterations =  1.0

     total cpu time spent up to now is       39.8 secs

     total energy              =    -542.35124279 Ry
     estimated scf accuracy    <       0.96311483 Ry

     total magnetization       =    11.25 Bohr mag/cell
     absolute magnetization    =    13.75 Bohr mag/cell
[tb_dev] Currently allocated     8.27E+00 Mbytes, locked:    0 /   9
[tb_pin] Currently allocated     0.00E+00 Mbytes, locked:    0 /   0

     iteration # 13     ecut=    60.00 Ry     beta= 0.40
     Davidson diagonalization with overlap

---- Real-time Memory Report at c_bands before calling an iterative solver
          1574 MiB given to the printing process from OS
          1347 MiB allocation reported by mallinfo(arena+hblkhd)
         58377 MiB available memory on the node where the printing process lives
     GPU memory used/free/total (MiB): 3230 / 13050 / 16280
------------------
     ethr =  1.33E-03,  avg # of iterations =  1.4

     total cpu time spent up to now is       42.1 secs

     total energy              =    -542.28040020 Ry
     estimated scf accuracy    <       6.50438318 Ry

     total magnetization       =     7.70 Bohr mag/cell
     absolute magnetization    =    15.38 Bohr mag/cell
[tb_dev] Currently allocated     8.27E+00 Mbytes, locked:    0 /   9
[tb_pin] Currently allocated     0.00E+00 Mbytes, locked:    0 /   0

     iteration # 14     ecut=    60.00 Ry     beta= 0.40
     Davidson diagonalization with overlap

---- Real-time Memory Report at c_bands before calling an iterative solver
          1574 MiB given to the printing process from OS
          1347 MiB allocation reported by mallinfo(arena+hblkhd)
         58376 MiB available memory on the node where the printing process lives
     GPU memory used/free/total (MiB): 3230 / 13050 / 16280
------------------
     ethr =  1.33E-03,  avg # of iterations =  1.0

     total cpu time spent up to now is       44.4 secs

     total energy              =    -542.39652984 Ry
     estimated scf accuracy    <       0.80678569 Ry

     total magnetization       =    11.19 Bohr mag/cell
     absolute magnetization    =    14.59 Bohr mag/cell
[tb_dev] Currently allocated     8.27E+00 Mbytes, locked:    0 /   9
[tb_pin] Currently allocated     0.00E+00 Mbytes, locked:    0 /   0

     iteration # 15     ecut=    60.00 Ry     beta= 0.40
     Davidson diagonalization with overlap

---- Real-time Memory Report at c_bands before calling an iterative solver
          1574 MiB given to the printing process from OS
          1347 MiB allocation reported by mallinfo(arena+hblkhd)
         58376 MiB available memory on the node where the printing process lives
     GPU memory used/free/total (MiB): 3230 / 13050 / 16280
------------------
     ethr =  1.30E-03,  avg # of iterations =  1.0

     total cpu time spent up to now is       46.6 secs

     total energy              =    -542.30516455 Ry
     estimated scf accuracy    <       3.95206279 Ry

     total magnetization       =     9.29 Bohr mag/cell
     absolute magnetization    =    15.17 Bohr mag/cell
[tb_dev] Currently allocated     8.27E+00 Mbytes, locked:    0 /   9
[tb_pin] Currently allocated     0.00E+00 Mbytes, locked:    0 /   0

     iteration # 16     ecut=    60.00 Ry     beta= 0.40
     Davidson diagonalization with overlap

---- Real-time Memory Report at c_bands before calling an iterative solver
          1574 MiB given to the printing process from OS
          1347 MiB allocation reported by mallinfo(arena+hblkhd)
         58376 MiB available memory on the node where the printing process lives
     GPU memory used/free/total (MiB): 3230 / 13050 / 16280
------------------
     ethr =  1.30E-03,  avg # of iterations =  1.0

     total cpu time spent up to now is       48.9 secs

     total energy              =    -542.40107512 Ry
     estimated scf accuracy    <       0.65011941 Ry

     total magnetization       =    11.67 Bohr mag/cell
     absolute magnetization    =    15.07 Bohr mag/cell
[tb_dev] Currently allocated     8.27E+00 Mbytes, locked:    0 /   9
[tb_pin] Currently allocated     0.00E+00 Mbytes, locked:    0 /   0

     iteration # 17     ecut=    60.00 Ry     beta= 0.40
     Davidson diagonalization with overlap

---- Real-time Memory Report at c_bands before calling an iterative solver
          1574 MiB given to the printing process from OS
          1347 MiB allocation reported by mallinfo(arena+hblkhd)
         58376 MiB available memory on the node where the printing process lives
     GPU memory used/free/total (MiB): 3230 / 13050 / 16280
------------------
     ethr =  1.05E-03,  avg # of iterations =  1.0

     total cpu time spent up to now is       51.2 secs

     total energy              =    -542.39740462 Ry
     estimated scf accuracy    <       1.09949619 Ry

     total magnetization       =    11.55 Bohr mag/cell
     absolute magnetization    =    15.27 Bohr mag/cell
[tb_dev] Currently allocated     8.27E+00 Mbytes, locked:    0 /   9
[tb_pin] Currently allocated     0.00E+00 Mbytes, locked:    0 /   0

     iteration # 18     ecut=    60.00 Ry     beta= 0.40
     Davidson diagonalization with overlap

---- Real-time Memory Report at c_bands before calling an iterative solver
          1574 MiB given to the printing process from OS
          1347 MiB allocation reported by mallinfo(arena+hblkhd)
         58376 MiB available memory on the node where the printing process lives
     GPU memory used/free/total (MiB): 3230 / 13050 / 16280
------------------
     ethr =  1.05E-03,  avg # of iterations =  1.0

     total cpu time spent up to now is       53.5 secs

     total energy              =    -542.19059246 Ry
     estimated scf accuracy    <       0.76852027 Ry

     total magnetization       =    11.96 Bohr mag/cell
     absolute magnetization    =    15.32 Bohr mag/cell
[tb_dev] Currently allocated     8.27E+00 Mbytes, locked:    0 /   9
[tb_pin] Currently allocated     0.00E+00 Mbytes, locked:    0 /   0

     iteration # 19     ecut=    60.00 Ry     beta= 0.40
     Davidson diagonalization with overlap

---- Real-time Memory Report at c_bands before calling an iterative solver
          1574 MiB given to the printing process from OS
          1347 MiB allocation reported by mallinfo(arena+hblkhd)
         58375 MiB available memory on the node where the printing process lives
     GPU memory used/free/total (MiB): 3230 / 13050 / 16280
------------------
     ethr =  1.05E-03,  avg # of iterations =  7.3

     total cpu time spent up to now is       57.0 secs

     total energy              =    -542.35689252 Ry
     estimated scf accuracy    <       1.67587283 Ry

     total magnetization       =    12.00 Bohr mag/cell
     absolute magnetization    =    16.71 Bohr mag/cell
[tb_dev] Currently allocated     8.27E+00 Mbytes, locked:    0 /   9
[tb_pin] Currently allocated     0.00E+00 Mbytes, locked:    0 /   0

     iteration # 20     ecut=    60.00 Ry     beta= 0.40
     Davidson diagonalization with overlap

---- Real-time Memory Report at c_bands before calling an iterative solver
          1574 MiB given to the printing process from OS
          1347 MiB allocation reported by mallinfo(arena+hblkhd)
         58376 MiB available memory on the node where the printing process lives
     GPU memory used/free/total (MiB): 3230 / 13050 / 16280
------------------
     ethr =  1.05E-03,  avg # of iterations =  1.2

     total cpu time spent up to now is       59.3 secs

     total energy              =    -542.49775130 Ry
     estimated scf accuracy    <       1.31424329 Ry

     total magnetization       =    12.00 Bohr mag/cell
     absolute magnetization    =    16.82 Bohr mag/cell
[tb_dev] Currently allocated     8.27E+00 Mbytes, locked:    0 /   9
[tb_pin] Currently allocated     0.00E+00 Mbytes, locked:    0 /   0

     iteration # 21     ecut=    60.00 Ry     beta= 0.40
     Davidson diagonalization with overlap

---- Real-time Memory Report at c_bands before calling an iterative solver
          1577 MiB given to the printing process from OS
          1347 MiB allocation reported by mallinfo(arena+hblkhd)
         58377 MiB available memory on the node where the printing process lives
     GPU memory used/free/total (MiB): 3230 / 13050 / 16280
------------------
     ethr =  1.05E-03,  avg # of iterations =  1.1

     total cpu time spent up to now is       61.6 secs

     total energy              =    -542.39929704 Ry
     estimated scf accuracy    <       1.61781437 Ry

     total magnetization       =    12.13 Bohr mag/cell
     absolute magnetization    =    16.87 Bohr mag/cell
[tb_dev] Currently allocated     8.27E+00 Mbytes, locked:    0 /   9
[tb_pin] Currently allocated     0.00E+00 Mbytes, locked:    0 /   0

     iteration # 22     ecut=    60.00 Ry     beta= 0.40
     Davidson diagonalization with overlap

---- Real-time Memory Report at c_bands before calling an iterative solver
          1577 MiB given to the printing process from OS
          1347 MiB allocation reported by mallinfo(arena+hblkhd)
         58377 MiB available memory on the node where the printing process lives
     GPU memory used/free/total (MiB): 3230 / 13050 / 16280
------------------
     ethr =  1.05E-03,  avg # of iterations =  1.0

     total cpu time spent up to now is       63.8 secs

     total energy              =    -542.41281775 Ry
     estimated scf accuracy    <       1.50643005 Ry

     total magnetization       =    12.00 Bohr mag/cell
     absolute magnetization    =    16.88 Bohr mag/cell
[tb_dev] Currently allocated     8.27E+00 Mbytes, locked:    0 /   9
[tb_pin] Currently allocated     0.00E+00 Mbytes, locked:    0 /   0

     iteration # 23     ecut=    60.00 Ry     beta= 0.40
     Davidson diagonalization with overlap

---- Real-time Memory Report at c_bands before calling an iterative solver
          1577 MiB given to the printing process from OS
          1347 MiB allocation reported by mallinfo(arena+hblkhd)
         58376 MiB available memory on the node where the printing process lives
     GPU memory used/free/total (MiB): 3230 / 13050 / 16280
------------------
     ethr =  1.05E-03,  avg # of iterations =  1.0

     total cpu time spent up to now is       66.0 secs

     total energy              =    -542.34519686 Ry
     estimated scf accuracy    <       1.57097127 Ry

     total magnetization       =    12.00 Bohr mag/cell
     absolute magnetization    =    16.90 Bohr mag/cell
[tb_dev] Currently allocated     8.27E+00 Mbytes, locked:    0 /   9
[tb_pin] Currently allocated     0.00E+00 Mbytes, locked:    0 /   0

     iteration # 24     ecut=    60.00 Ry     beta= 0.40
     Davidson diagonalization with overlap

---- Real-time Memory Report at c_bands before calling an iterative solver
          1577 MiB given to the printing process from OS
          1347 MiB allocation reported by mallinfo(arena+hblkhd)
         58371 MiB available memory on the node where the printing process lives
     GPU memory used/free/total (MiB): 3230 / 13050 / 16280
------------------
     ethr =  1.05E-03,  avg # of iterations =  1.0

     total cpu time spent up to now is       68.3 secs

     total energy              =    -542.32898038 Ry
     estimated scf accuracy    <       1.22934432 Ry

     total magnetization       =    12.00 Bohr mag/cell
     absolute magnetization    =    16.99 Bohr mag/cell
[tb_dev] Currently allocated     8.27E+00 Mbytes, locked:    0 /   9
[tb_pin] Currently allocated     0.00E+00 Mbytes, locked:    0 /   0

     iteration # 25     ecut=    60.00 Ry     beta= 0.40
     Davidson diagonalization with overlap

---- Real-time Memory Report at c_bands before calling an iterative solver
          1577 MiB given to the printing process from OS
          1347 MiB allocation reported by mallinfo(arena+hblkhd)
         58372 MiB available memory on the node where the printing process lives
     GPU memory used/free/total (MiB): 3230 / 13050 / 16280
------------------
     ethr =  1.05E-03,  avg # of iterations =  1.0

     total cpu time spent up to now is       70.6 secs

     total energy              =    -542.30634788 Ry
     estimated scf accuracy    <       1.09920421 Ry

     total magnetization       =    12.00 Bohr mag/cell
     absolute magnetization    =    17.02 Bohr mag/cell
[tb_dev] Currently allocated     8.27E+00 Mbytes, locked:    0 /   9
[tb_pin] Currently allocated     0.00E+00 Mbytes, locked:    0 /   0

     iteration # 26     ecut=    60.00 Ry     beta= 0.40
     Davidson diagonalization with overlap

---- Real-time Memory Report at c_bands before calling an iterative solver
          1577 MiB given to the printing process from OS
          1347 MiB allocation reported by mallinfo(arena+hblkhd)
         58373 MiB available memory on the node where the printing process lives
     GPU memory used/free/total (MiB): 3230 / 13050 / 16280
------------------
     ethr =  1.05E-03,  avg # of iterations =  1.0

     total cpu time spent up to now is       72.9 secs

     total energy              =    -542.09376066 Ry
     estimated scf accuracy    <       1.04936599 Ry

     total magnetization       =    12.00 Bohr mag/cell
     absolute magnetization    =    17.22 Bohr mag/cell
[tb_dev] Currently allocated     8.27E+00 Mbytes, locked:    0 /   9
[tb_pin] Currently allocated     0.00E+00 Mbytes, locked:    0 /   0

     iteration # 27     ecut=    60.00 Ry     beta= 0.40
     Davidson diagonalization with overlap

---- Real-time Memory Report at c_bands before calling an iterative solver
          1577 MiB given to the printing process from OS
          1347 MiB allocation reported by mallinfo(arena+hblkhd)
         58373 MiB available memory on the node where the printing process lives
     GPU memory used/free/total (MiB): 3230 / 13050 / 16280
------------------
     ethr =  1.05E-03,  avg # of iterations =  5.7

     total cpu time spent up to now is       76.2 secs

     total energy              =    -542.37407454 Ry
     estimated scf accuracy    <       1.18530145 Ry

     total magnetization       =    11.87 Bohr mag/cell
     absolute magnetization    =    16.66 Bohr mag/cell
[tb_dev] Currently allocated     8.27E+00 Mbytes, locked:    0 /   9
[tb_pin] Currently allocated     0.00E+00 Mbytes, locked:    0 /   0

     iteration # 28     ecut=    60.00 Ry     beta= 0.40
     Davidson diagonalization with overlap

---- Real-time Memory Report at c_bands before calling an iterative solver
          1577 MiB given to the printing process from OS
          1347 MiB allocation reported by mallinfo(arena+hblkhd)
         58374 MiB available memory on the node where the printing process lives
     GPU memory used/free/total (MiB): 3230 / 13050 / 16280
------------------
     ethr =  1.05E-03,  avg # of iterations =  1.0

     total cpu time spent up to now is       78.5 secs

     total energy              =    -542.37393822 Ry
     estimated scf accuracy    <       0.63948292 Ry

     total magnetization       =    12.02 Bohr mag/cell
     absolute magnetization    =    16.89 Bohr mag/cell
[tb_dev] Currently allocated     8.27E+00 Mbytes, locked:    0 /   9
[tb_pin] Currently allocated     0.00E+00 Mbytes, locked:    0 /   0

     iteration # 29     ecut=    60.00 Ry     beta= 0.40
     Davidson diagonalization with overlap

---- Real-time Memory Report at c_bands before calling an iterative solver
          1577 MiB given to the printing process from OS
          1347 MiB allocation reported by mallinfo(arena+hblkhd)
         58375 MiB available memory on the node where the printing process lives
     GPU memory used/free/total (MiB): 3230 / 13050 / 16280
------------------
     ethr =  1.03E-03,  avg # of iterations =  1.0

     total cpu time spent up to now is       80.8 secs

     total energy              =    -542.35410532 Ry
     estimated scf accuracy    <       0.58157272 Ry

     total magnetization       =    12.04 Bohr mag/cell
     absolute magnetization    =    16.87 Bohr mag/cell
[tb_dev] Currently allocated     8.27E+00 Mbytes, locked:    0 /   9
[tb_pin] Currently allocated     0.00E+00 Mbytes, locked:    0 /   0

     iteration # 30     ecut=    60.00 Ry     beta= 0.40
     Davidson diagonalization with overlap

---- Real-time Memory Report at c_bands before calling an iterative solver
          1577 MiB given to the printing process from OS
          1347 MiB allocation reported by mallinfo(arena+hblkhd)
         58370 MiB available memory on the node where the printing process lives
     GPU memory used/free/total (MiB): 3230 / 13050 / 16280
------------------
     ethr =  9.38E-04,  avg # of iterations =  1.0

     total cpu time spent up to now is       83.0 secs

     total energy              =    -542.36210753 Ry
     estimated scf accuracy    <       0.48864102 Ry

     total magnetization       =    12.02 Bohr mag/cell
     absolute magnetization    =    16.84 Bohr mag/cell
[tb_dev] Currently allocated     8.27E+00 Mbytes, locked:    0 /   9
[tb_pin] Currently allocated     0.00E+00 Mbytes, locked:    0 /   0

     iteration # 31     ecut=    60.00 Ry     beta= 0.40
     Davidson diagonalization with overlap

---- Real-time Memory Report at c_bands before calling an iterative solver
          1577 MiB given to the printing process from OS
          1347 MiB allocation reported by mallinfo(arena+hblkhd)
         58373 MiB available memory on the node where the printing process lives
     GPU memory used/free/total (MiB): 3230 / 13050 / 16280
------------------
     ethr =  7.88E-04,  avg # of iterations =  1.0

     total cpu time spent up to now is       85.4 secs

     total energy              =    -542.26819324 Ry
     estimated scf accuracy    <       0.52229396 Ry

     total magnetization       =    12.02 Bohr mag/cell
     absolute magnetization    =    16.83 Bohr mag/cell
[tb_dev] Currently allocated     8.27E+00 Mbytes, locked:    0 /   9
[tb_pin] Currently allocated     0.00E+00 Mbytes, locked:    0 /   0

     iteration # 32     ecut=    60.00 Ry     beta= 0.40
     Davidson diagonalization with overlap

---- Real-time Memory Report at c_bands before calling an iterative solver
          1577 MiB given to the printing process from OS
          1347 MiB allocation reported by mallinfo(arena+hblkhd)
         58374 MiB available memory on the node where the printing process lives
     GPU memory used/free/total (MiB): 3230 / 13050 / 16280
------------------
     ethr =  7.88E-04,  avg # of iterations =  1.7

     total cpu time spent up to now is       87.8 secs

     total energy              =    -542.27438539 Ry
     estimated scf accuracy    <       0.11994851 Ry

     total magnetization       =    12.00 Bohr mag/cell
     absolute magnetization    =    16.69 Bohr mag/cell
[tb_dev] Currently allocated     8.27E+00 Mbytes, locked:    0 /   9
[tb_pin] Currently allocated     0.00E+00 Mbytes, locked:    0 /   0

     iteration # 33     ecut=    60.00 Ry     beta= 0.40
     Davidson diagonalization with overlap

---- Real-time Memory Report at c_bands before calling an iterative solver
          1577 MiB given to the printing process from OS
          1347 MiB allocation reported by mallinfo(arena+hblkhd)
         58375 MiB available memory on the node where the printing process lives
     GPU memory used/free/total (MiB): 3230 / 13050 / 16280
------------------
     c_bands:  1 eigenvalues not converged
     ethr =  1.93E-04,  avg # of iterations = 10.3

     total cpu time spent up to now is       92.3 secs

     total energy              =    -542.34512379 Ry
     estimated scf accuracy    <       2.06831084 Ry

     total magnetization       =    12.00 Bohr mag/cell
     absolute magnetization    =    16.91 Bohr mag/cell
[tb_dev] Currently allocated     8.27E+00 Mbytes, locked:    0 /   9
[tb_pin] Currently allocated     0.00E+00 Mbytes, locked:    0 /   0

     iteration # 34     ecut=    60.00 Ry     beta= 0.40
     Davidson diagonalization with overlap

---- Real-time Memory Report at c_bands before calling an iterative solver
          1577 MiB given to the printing process from OS
          1347 MiB allocation reported by mallinfo(arena+hblkhd)
         58377 MiB available memory on the node where the printing process lives
     GPU memory used/free/total (MiB): 3230 / 13050 / 16280
------------------
     ethr =  1.93E-04,  avg # of iterations =  1.4

     total cpu time spent up to now is       94.7 secs

     total energy              =    -542.28116270 Ry
     estimated scf accuracy    <       1.59897920 Ry

     total magnetization       =    12.00 Bohr mag/cell
     absolute magnetization    =    17.02 Bohr mag/cell
[tb_dev] Currently allocated     8.27E+00 Mbytes, locked:    0 /   9
[tb_pin] Currently allocated     0.00E+00 Mbytes, locked:    0 /   0

     iteration # 35     ecut=    60.00 Ry     beta= 0.40
     Davidson diagonalization with overlap

---- Real-time Memory Report at c_bands before calling an iterative solver
          1577 MiB given to the printing process from OS
          1347 MiB allocation reported by mallinfo(arena+hblkhd)
         58376 MiB available memory on the node where the printing process lives
     GPU memory used/free/total (MiB): 3230 / 13050 / 16280
------------------
     ethr =  1.93E-04,  avg # of iterations =  1.6

     total cpu time spent up to now is       97.1 secs

     total energy              =    -542.27318395 Ry
     estimated scf accuracy    <       1.19466508 Ry

     total magnetization       =    12.00 Bohr mag/cell
     absolute magnetization    =    17.05 Bohr mag/cell
[tb_dev] Currently allocated     8.27E+00 Mbytes, locked:    0 /   9
[tb_pin] Currently allocated     0.00E+00 Mbytes, locked:    0 /   0

     iteration # 36     ecut=    60.00 Ry     beta= 0.40
     Davidson diagonalization with overlap

---- Real-time Memory Report at c_bands before calling an iterative solver
          1577 MiB given to the printing process from OS
          1347 MiB allocation reported by mallinfo(arena+hblkhd)
         58378 MiB available memory on the node where the printing process lives
     GPU memory used/free/total (MiB): 3230 / 13050 / 16280
------------------
     ethr =  1.93E-04,  avg # of iterations =  2.8

     total cpu time spent up to now is       99.7 secs

     total energy              =    -542.29753628 Ry
     estimated scf accuracy    <       0.56785987 Ry

     total magnetization       =    12.00 Bohr mag/cell
     absolute magnetization    =    16.90 Bohr mag/cell
[tb_dev] Currently allocated     8.27E+00 Mbytes, locked:    0 /   9
[tb_pin] Currently allocated     0.00E+00 Mbytes, locked:    0 /   0

     iteration # 37     ecut=    60.00 Ry     beta= 0.40
     Davidson diagonalization with overlap

---- Real-time Memory Report at c_bands before calling an iterative solver
          1577 MiB given to the printing process from OS
          1347 MiB allocation reported by mallinfo(arena+hblkhd)
         58379 MiB available memory on the node where the printing process lives
     GPU memory used/free/total (MiB): 3230 / 13050 / 16280
------------------
     ethr =  1.93E-04,  avg # of iterations =  1.1

     total cpu time spent up to now is      102.1 secs

     total energy              =    -542.33220603 Ry
     estimated scf accuracy    <       0.54941435 Ry

     total magnetization       =    12.00 Bohr mag/cell
     absolute magnetization    =    16.89 Bohr mag/cell
[tb_dev] Currently allocated     8.27E+00 Mbytes, locked:    0 /   9
[tb_pin] Currently allocated     0.00E+00 Mbytes, locked:    0 /   0

     iteration # 38     ecut=    60.00 Ry     beta= 0.40
     Davidson diagonalization with overlap

---- Real-time Memory Report at c_bands before calling an iterative solver
          1577 MiB given to the printing process from OS
          1347 MiB allocation reported by mallinfo(arena+hblkhd)
         58379 MiB available memory on the node where the printing process lives
     GPU memory used/free/total (MiB): 3230 / 13050 / 16280
------------------
     ethr =  1.93E-04,  avg # of iterations =  1.1

     total cpu time spent up to now is      104.4 secs

     total energy              =    -542.36443213 Ry
     estimated scf accuracy    <       0.71407004 Ry

     total magnetization       =    12.00 Bohr mag/cell
     absolute magnetization    =    16.90 Bohr mag/cell
[tb_dev] Currently allocated     8.27E+00 Mbytes, locked:    0 /   9
[tb_pin] Currently allocated     0.00E+00 Mbytes, locked:    0 /   0

     iteration # 39     ecut=    60.00 Ry     beta= 0.40
     Davidson diagonalization with overlap

---- Real-time Memory Report at c_bands before calling an iterative solver
          1577 MiB given to the printing process from OS
          1347 MiB allocation reported by mallinfo(arena+hblkhd)
         58379 MiB available memory on the node where the printing process lives
     GPU memory used/free/total (MiB): 3230 / 13050 / 16280
------------------
     ethr =  1.93E-04,  avg # of iterations =  1.5

     total cpu time spent up to now is      106.8 secs

     total energy              =    -542.35962306 Ry
     estimated scf accuracy    <       0.91460573 Ry

     total magnetization       =    12.00 Bohr mag/cell
     absolute magnetization    =    16.91 Bohr mag/cell
[tb_dev] Currently allocated     8.27E+00 Mbytes, locked:    0 /   9
[tb_pin] Currently allocated     0.00E+00 Mbytes, locked:    0 /   0

     iteration # 40     ecut=    60.00 Ry     beta= 0.40
     Davidson diagonalization with overlap

---- Real-time Memory Report at c_bands before calling an iterative solver
          1577 MiB given to the printing process from OS
          1347 MiB allocation reported by mallinfo(arena+hblkhd)
         58379 MiB available memory on the node where the printing process lives
     GPU memory used/free/total (MiB): 3230 / 13050 / 16280
------------------
     ethr =  1.93E-04,  avg # of iterations =  1.0

     total cpu time spent up to now is      109.1 secs

     total energy              =    -542.31928486 Ry
     estimated scf accuracy    <       0.88743195 Ry

     total magnetization       =    12.00 Bohr mag/cell
     absolute magnetization    =    16.91 Bohr mag/cell
[tb_dev] Currently allocated     8.27E+00 Mbytes, locked:    0 /   9
[tb_pin] Currently allocated     0.00E+00 Mbytes, locked:    0 /   0

     iteration # 41     ecut=    60.00 Ry     beta= 0.40
     Davidson diagonalization with overlap

---- Real-time Memory Report at c_bands before calling an iterative solver
          1577 MiB given to the printing process from OS
          1347 MiB allocation reported by mallinfo(arena+hblkhd)
         58379 MiB available memory on the node where the printing process lives
     GPU memory used/free/total (MiB): 3230 / 13050 / 16280
------------------
     ethr =  1.93E-04,  avg # of iterations =  1.1

     total cpu time spent up to now is      111.4 secs

     total energy              =    -542.20789382 Ry
     estimated scf accuracy    <       0.70236921 Ry

     total magnetization       =    12.00 Bohr mag/cell
     absolute magnetization    =    16.89 Bohr mag/cell
[tb_dev] Currently allocated     8.27E+00 Mbytes, locked:    0 /   9
[tb_pin] Currently allocated     0.00E+00 Mbytes, locked:    0 /   0

     iteration # 42     ecut=    60.00 Ry     beta= 0.40
     Davidson diagonalization with overlap

---- Real-time Memory Report at c_bands before calling an iterative solver
          1577 MiB given to the printing process from OS
          1347 MiB allocation reported by mallinfo(arena+hblkhd)
         58379 MiB available memory on the node where the printing process lives
     GPU memory used/free/total (MiB): 3230 / 13050 / 16280
------------------
     c_bands:  1 eigenvalues not converged
     ethr =  1.93E-04,  avg # of iterations =  8.6

     total cpu time spent up to now is      115.4 secs

     total energy              =    -542.44679541 Ry
     estimated scf accuracy    <       3.80393957 Ry

     total magnetization       =    11.96 Bohr mag/cell
     absolute magnetization    =    17.05 Bohr mag/cell
[tb_dev] Currently allocated     8.27E+00 Mbytes, locked:    0 /   9
[tb_pin] Currently allocated     0.00E+00 Mbytes, locked:    0 /   0

     iteration # 43     ecut=    60.00 Ry     beta= 0.40
     Davidson diagonalization with overlap

---- Real-time Memory Report at c_bands before calling an iterative solver
          1577 MiB given to the printing process from OS
          1347 MiB allocation reported by mallinfo(arena+hblkhd)
         58378 MiB available memory on the node where the printing process lives
     GPU memory used/free/total (MiB): 3230 / 13050 / 16280
------------------
     ethr =  1.93E-04,  avg # of iterations =  1.4

     total cpu time spent up to now is      117.8 secs

     total energy              =    -542.44054864 Ry
     estimated scf accuracy    <       3.22973544 Ry

     total magnetization       =    11.74 Bohr mag/cell
     absolute magnetization    =    17.34 Bohr mag/cell
[tb_dev] Currently allocated     8.27E+00 Mbytes, locked:    0 /   9
[tb_pin] Currently allocated     0.00E+00 Mbytes, locked:    0 /   0

     iteration # 44     ecut=    60.00 Ry     beta= 0.40
     Davidson diagonalization with overlap

---- Real-time Memory Report at c_bands before calling an iterative solver
          1577 MiB given to the printing process from OS
          1347 MiB allocation reported by mallinfo(arena+hblkhd)
         58378 MiB available memory on the node where the printing process lives
     GPU memory used/free/total (MiB): 3230 / 13050 / 16280
------------------
     ethr =  1.93E-04,  avg # of iterations =  1.1

     total cpu time spent up to now is      120.2 secs

     total energy              =    -542.42861285 Ry
     estimated scf accuracy    <       3.12247666 Ry

     total magnetization       =    11.76 Bohr mag/cell
     absolute magnetization    =    17.36 Bohr mag/cell
[tb_dev] Currently allocated     8.27E+00 Mbytes, locked:    0 /   9
[tb_pin] Currently allocated     0.00E+00 Mbytes, locked:    0 /   0

     iteration # 45     ecut=    60.00 Ry     beta= 0.40
     Davidson diagonalization with overlap

---- Real-time Memory Report at c_bands before calling an iterative solver
          1577 MiB given to the printing process from OS
          1347 MiB allocation reported by mallinfo(arena+hblkhd)
         58379 MiB available memory on the node where the printing process lives
     GPU memory used/free/total (MiB): 3230 / 13050 / 16280
------------------
     ethr =  1.93E-04,  avg # of iterations =  1.4

     total cpu time spent up to now is      122.6 secs

     total energy              =    -542.42113983 Ry
     estimated scf accuracy    <       2.70546110 Ry

     total magnetization       =    12.01 Bohr mag/cell
     absolute magnetization    =    17.53 Bohr mag/cell
[tb_dev] Currently allocated     8.27E+00 Mbytes, locked:    0 /   9
[tb_pin] Currently allocated     0.00E+00 Mbytes, locked:    0 /   0

     iteration # 46     ecut=    60.00 Ry     beta= 0.40
     Davidson diagonalization with overlap

---- Real-time Memory Report at c_bands before calling an iterative solver
          1577 MiB given to the printing process from OS
          1347 MiB allocation reported by mallinfo(arena+hblkhd)
         58379 MiB available memory on the node where the printing process lives
     GPU memory used/free/total (MiB): 3230 / 13050 / 16280
------------------
     ethr =  1.93E-04,  avg # of iterations =  1.1

     total cpu time spent up to now is      124.8 secs

     total energy              =    -542.42661888 Ry
     estimated scf accuracy    <       2.62951500 Ry

     total magnetization       =    12.01 Bohr mag/cell
     absolute magnetization    =    17.51 Bohr mag/cell
[tb_dev] Currently allocated     8.27E+00 Mbytes, locked:    0 /   9
[tb_pin] Currently allocated     0.00E+00 Mbytes, locked:    0 /   0

     iteration # 47     ecut=    60.00 Ry     beta= 0.40
     Davidson diagonalization with overlap

---- Real-time Memory Report at c_bands before calling an iterative solver
          1577 MiB given to the printing process from OS
          1347 MiB allocation reported by mallinfo(arena+hblkhd)
         58379 MiB available memory on the node where the printing process lives
     GPU memory used/free/total (MiB): 3230 / 13050 / 16280
------------------
     ethr =  1.93E-04,  avg # of iterations =  1.0

     total cpu time spent up to now is      127.1 secs

     total energy              =    -542.42879057 Ry
     estimated scf accuracy    <       2.65299318 Ry

     total magnetization       =    11.98 Bohr mag/cell
     absolute magnetization    =    17.46 Bohr mag/cell
[tb_dev] Currently allocated     8.27E+00 Mbytes, locked:    0 /   9
[tb_pin] Currently allocated     0.00E+00 Mbytes, locked:    0 /   0

     iteration # 48     ecut=    60.00 Ry     beta= 0.40
     Davidson diagonalization with overlap

---- Real-time Memory Report at c_bands before calling an iterative solver
          1577 MiB given to the printing process from OS
          1347 MiB allocation reported by mallinfo(arena+hblkhd)
         58379 MiB available memory on the node where the printing process lives
     GPU memory used/free/total (MiB): 3230 / 13050 / 16280
------------------
     ethr =  1.93E-04,  avg # of iterations =  1.1

     total cpu time spent up to now is      129.4 secs

     total energy              =    -542.39823424 Ry
     estimated scf accuracy    <       2.66793020 Ry

     total magnetization       =    11.98 Bohr mag/cell
     absolute magnetization    =    17.44 Bohr mag/cell
[tb_dev] Currently allocated     8.27E+00 Mbytes, locked:    0 /   9
[tb_pin] Currently allocated     0.00E+00 Mbytes, locked:    0 /   0

     iteration # 49     ecut=    60.00 Ry     beta= 0.40
     Davidson diagonalization with overlap

---- Real-time Memory Report at c_bands before calling an iterative solver
          1577 MiB given to the printing process from OS
          1347 MiB allocation reported by mallinfo(arena+hblkhd)
         58380 MiB available memory on the node where the printing process lives
     GPU memory used/free/total (MiB): 3230 / 13050 / 16280
------------------
     ethr =  1.93E-04,  avg # of iterations =  1.1

     total cpu time spent up to now is      131.7 secs

     total energy              =    -542.36786032 Ry
     estimated scf accuracy    <       2.46234528 Ry

     total magnetization       =    12.02 Bohr mag/cell
     absolute magnetization    =    17.45 Bohr mag/cell
[tb_dev] Currently allocated     8.27E+00 Mbytes, locked:    0 /   9
[tb_pin] Currently allocated     0.00E+00 Mbytes, locked:    0 /   0

     iteration # 50     ecut=    60.00 Ry     beta= 0.40
     Davidson diagonalization with overlap

---- Real-time Memory Report at c_bands before calling an iterative solver
          1577 MiB given to the printing process from OS
          1347 MiB allocation reported by mallinfo(arena+hblkhd)
         58379 MiB available memory on the node where the printing process lives
     GPU memory used/free/total (MiB): 3230 / 13050 / 16280
------------------
     ethr =  1.93E-04,  avg # of iterations =  1.0

     total cpu time spent up to now is      134.0 secs

     total energy              =    -542.05546413 Ry
     estimated scf accuracy    <       2.26476266 Ry

     total magnetization       =    12.01 Bohr mag/cell
     absolute magnetization    =    17.48 Bohr mag/cell
[tb_dev] Currently allocated     8.27E+00 Mbytes, locked:    0 /   9
[tb_pin] Currently allocated     0.00E+00 Mbytes, locked:    0 /   0

     iteration # 51     ecut=    60.00 Ry     beta= 0.40
     Davidson diagonalization with overlap

---- Real-time Memory Report at c_bands before calling an iterative solver
          1577 MiB given to the printing process from OS
          1347 MiB allocation reported by mallinfo(arena+hblkhd)
         58371 MiB available memory on the node where the printing process lives
     GPU memory used/free/total (MiB): 3230 / 13050 / 16280
------------------
     c_bands:  1 eigenvalues not converged
     ethr =  1.93E-04,  avg # of iterations = 11.2

     total cpu time spent up to now is      139.1 secs

     total energy              =    -542.91248795 Ry
     estimated scf accuracy    <      10.45512427 Ry

     total magnetization       =     9.06 Bohr mag/cell
     absolute magnetization    =    14.68 Bohr mag/cell
[tb_dev] Currently allocated     8.27E+00 Mbytes, locked:    0 /   9
[tb_pin] Currently allocated     0.00E+00 Mbytes, locked:    0 /   0

     iteration # 52     ecut=    60.00 Ry     beta= 0.40
     Davidson diagonalization with overlap

---- Real-time Memory Report at c_bands before calling an iterative solver
          1577 MiB given to the printing process from OS
          1347 MiB allocation reported by mallinfo(arena+hblkhd)
         58375 MiB available memory on the node where the printing process lives
     GPU memory used/free/total (MiB): 3230 / 13050 / 16280
------------------
     ethr =  1.93E-04,  avg # of iterations =  3.1

     total cpu time spent up to now is      141.8 secs

     total energy              =    -542.15364051 Ry
     estimated scf accuracy    <       8.98916690 Ry

     total magnetization       =    10.28 Bohr mag/cell
     absolute magnetization    =    15.33 Bohr mag/cell
[tb_dev] Currently allocated     8.27E+00 Mbytes, locked:    0 /   9
[tb_pin] Currently allocated     0.00E+00 Mbytes, locked:    0 /   0

     iteration # 53     ecut=    60.00 Ry     beta= 0.40
     Davidson diagonalization with overlap

---- Real-time Memory Report at c_bands before calling an iterative solver
          1577 MiB given to the printing process from OS
[...]
     GPU memory used/free/total (MiB): 3230 / 13050 / 16280
------------------
     ethr =  1.60E-04,  avg # of iterations =  1.1

     total cpu time spent up to now is      176.9 secs

     total energy              =    -542.32401215 Ry
     estimated scf accuracy    <       0.12521906 Ry

     total magnetization       =    12.05 Bohr mag/cell
     absolute magnetization    =    17.59 Bohr mag/cell
[tb_dev] Currently allocated     8.27E+00 Mbytes, locked:    0 /   9
[tb_pin] Currently allocated     0.00E+00 Mbytes, locked:    0 /   0

     iteration # 66     ecut=    60.00 Ry     beta= 0.40
     Davidson diagonalization with overlap

---- Real-time Memory Report at c_bands before calling an iterative solver
          1577 MiB given to the printing process from OS
          1347 MiB allocation reported by mallinfo(arena+hblkhd)
         58380 MiB available memory on the node where the printing process lives
     GPU memory used/free/total (MiB): 3230 / 13050 / 16280
------------------
     ethr =  1.60E-04,  avg # of iterations =  1.1

     total cpu time spent up to now is      179.2 secs

     total energy              =    -542.32607126 Ry
     estimated scf accuracy    <       0.13429094 Ry

     total magnetization       =    12.08 Bohr mag/cell
     absolute magnetization    =    17.55 Bohr mag/cell
[tb_dev] Currently allocated     8.27E+00 Mbytes, locked:    0 /   9
[tb_pin] Currently allocated     0.00E+00 Mbytes, locked:    0 /   0

     iteration # 67     ecut=    60.00 Ry     beta= 0.40
     Davidson diagonalization with overlap

---- Real-time Memory Report at c_bands before calling an iterative solver
          1577 MiB given to the printing process from OS
          1347 MiB allocation reported by mallinfo(arena+hblkhd)
         58381 MiB available memory on the node where the printing process lives
     GPU memory used/free/total (MiB): 3230 / 13050 / 16280
------------------
     ethr =  1.60E-04,  avg # of iterations =  1.1

     total cpu time spent up to now is      181.5 secs

     total energy              =    -542.31037460 Ry
     estimated scf accuracy    <       0.14122278 Ry

     total magnetization       =    12.10 Bohr mag/cell
     absolute magnetization    =    17.53 Bohr mag/cell
[tb_dev] Currently allocated     8.27E+00 Mbytes, locked:    0 /   9
[tb_pin] Currently allocated     0.00E+00 Mbytes, locked:    0 /   0

     iteration # 68     ecut=    60.00 Ry     beta= 0.40
     Davidson diagonalization with overlap

---- Real-time Memory Report at c_bands before calling an iterative solver
          1577 MiB given to the printing process from OS
          1347 MiB allocation reported by mallinfo(arena+hblkhd)
         58381 MiB available memory on the node where the printing process lives
     GPU memory used/free/total (MiB): 3230 / 13050 / 16280
------------------
     ethr =  1.60E-04,  avg # of iterations =  1.2

     total cpu time spent up to now is      183.9 secs

     total energy              =    -542.31350975 Ry
     estimated scf accuracy    <       0.07123572 Ry

     total magnetization       =    12.00 Bohr mag/cell
     absolute magnetization    =    17.60 Bohr mag/cell
[tb_dev] Currently allocated     8.27E+00 Mbytes, locked:    0 /   9
[tb_pin] Currently allocated     0.00E+00 Mbytes, locked:    0 /   0

     iteration # 69     ecut=    60.00 Ry     beta= 0.40
     Davidson diagonalization with overlap

---- Real-time Memory Report at c_bands before calling an iterative solver
          1577 MiB given to the printing process from OS
          1347 MiB allocation reported by mallinfo(arena+hblkhd)
         58380 MiB available memory on the node where the printing process lives
     GPU memory used/free/total (MiB): 3230 / 13050 / 16280
------------------
     ethr =  1.15E-04,  avg # of iterations =  1.0

     total cpu time spent up to now is      186.2 secs

     total energy              =    -542.30551504 Ry
     estimated scf accuracy    <       0.05815218 Ry

     total magnetization       =    12.00 Bohr mag/cell
     absolute magnetization    =    17.62 Bohr mag/cell
[tb_dev] Currently allocated     8.27E+00 Mbytes, locked:    0 /   9
[tb_pin] Currently allocated     0.00E+00 Mbytes, locked:    0 /   0

     iteration # 70     ecut=    60.00 Ry     beta= 0.40
     Davidson diagonalization with overlap

---- Real-time Memory Report at c_bands before calling an iterative solver
          1578 MiB given to the printing process from OS
          1347 MiB allocation reported by mallinfo(arena+hblkhd)
         58381 MiB available memory on the node where the printing process lives
     GPU memory used/free/total (MiB): 3230 / 13050 / 16280
------------------
     c_bands:  2 eigenvalues not converged
     c_bands:  4 eigenvalues not converged
     c_bands:  1 eigenvalues not converged
     c_bands:  3 eigenvalues not converged
     ethr =  9.38E-05,  avg # of iterations =  6.0

     total cpu time spent up to now is      189.5 secs

     total energy              =    -542.31938712 Ry
     estimated scf accuracy    <       0.16764416 Ry

     total magnetization       =    12.00 Bohr mag/cell
     absolute magnetization    =    17.21 Bohr mag/cell
[tb_dev] Currently allocated     8.27E+00 Mbytes, locked:    0 /   9
[tb_pin] Currently allocated     0.00E+00 Mbytes, locked:    0 /   0

     iteration # 71     ecut=    60.00 Ry     beta= 0.40
     Davidson diagonalization with overlap

---- Real-time Memory Report at c_bands before calling an iterative solver
          1578 MiB given to the printing process from OS
          1347 MiB allocation reported by mallinfo(arena+hblkhd)
         58380 MiB available memory on the node where the printing process lives
     GPU memory used/free/total (MiB): 3230 / 13050 / 16280
------------------
     ethr =  9.38E-05,  avg # of iterations =  1.3

     total cpu time spent up to now is      191.8 secs

     total energy              =    -542.31423387 Ry
     estimated scf accuracy    <       0.10510108 Ry

     total magnetization       =    12.00 Bohr mag/cell
     absolute magnetization    =    17.17 Bohr mag/cell
[tb_dev] Currently allocated     8.27E+00 Mbytes, locked:    0 /   9
[tb_pin] Currently allocated     0.00E+00 Mbytes, locked:    0 /   0

     iteration # 72     ecut=    60.00 Ry     beta= 0.40
     Davidson diagonalization with overlap

---- Real-time Memory Report at c_bands before calling an iterative solver
          1578 MiB given to the printing process from OS
          1347 MiB allocation reported by mallinfo(arena+hblkhd)
         58380 MiB available memory on the node where the printing process lives
     GPU memory used/free/total (MiB): 3230 / 13050 / 16280
------------------
     ethr =  9.38E-05,  avg # of iterations =  2.0

     total cpu time spent up to now is      194.3 secs

     total energy              =    -542.29824402 Ry
     estimated scf accuracy    <       0.04054409 Ry

     total magnetization       =    12.00 Bohr mag/cell
     absolute magnetization    =    17.11 Bohr mag/cell
[tb_dev] Currently allocated     8.27E+00 Mbytes, locked:    0 /   9
[tb_pin] Currently allocated     0.00E+00 Mbytes, locked:    0 /   0

     iteration # 73     ecut=    60.00 Ry     beta= 0.40
     Davidson diagonalization with overlap

---- Real-time Memory Report at c_bands before calling an iterative solver
          1578 MiB given to the printing process from OS
          1347 MiB allocation reported by mallinfo(arena+hblkhd)
         58380 MiB available memory on the node where the printing process lives
     GPU memory used/free/total (MiB): 3230 / 13050 / 16280
------------------
     c_bands:  2 eigenvalues not converged
     c_bands:  3 eigenvalues not converged
     c_bands:  3 eigenvalues not converged
     c_bands:  2 eigenvalues not converged
     c_bands:  5 eigenvalues not converged
     c_bands:  1 eigenvalues not converged
     c_bands:  2 eigenvalues not converged
     c_bands:  3 eigenvalues not converged
     c_bands:  1 eigenvalues not converged
     c_bands:  1 eigenvalues not converged
     ethr =  6.54E-05,  avg # of iterations = 11.7

     total cpu time spent up to now is      199.1 secs

     total energy              =    -542.62613058 Ry
     estimated scf accuracy    <       3.76234121 Ry

     total magnetization       =    11.74 Bohr mag/cell
     absolute magnetization    =    16.93 Bohr mag/cell
[tb_dev] Currently allocated     8.27E+00 Mbytes, locked:    0 /   9
[tb_pin] Currently allocated     0.00E+00 Mbytes, locked:    0 /   0

     iteration # 74     ecut=    60.00 Ry     beta= 0.40
     Davidson diagonalization with overlap

---- Real-time Memory Report at c_bands before calling an iterative solver
          1578 MiB given to the printing process from OS
          1347 MiB allocation reported by mallinfo(arena+hblkhd)
         58380 MiB available memory on the node where the printing process lives
     GPU memory used/free/total (MiB): 3230 / 13050 / 16280
------------------
     c_bands:  1 eigenvalues not converged
     c_bands:  1 eigenvalues not converged
     ethr =  6.54E-05,  avg # of iterations =  6.3

     total cpu time spent up to now is      202.7 secs

     total energy              =    -542.80390650 Ry
     estimated scf accuracy    <       7.09355332 Ry

     total magnetization       =    12.12 Bohr mag/cell
     absolute magnetization    =    16.75 Bohr mag/cell
[tb_dev] Currently allocated     8.27E+00 Mbytes, locked:    0 /   9
[tb_pin] Currently allocated     0.00E+00 Mbytes, locked:    0 /   0

     iteration # 75     ecut=    60.00 Ry     beta= 0.40
     Davidson diagonalization with overlap

---- Real-time Memory Report at c_bands before calling an iterative solver
          1578 MiB given to the printing process from OS
          1347 MiB allocation reported by mallinfo(arena+hblkhd)
         58379 MiB available memory on the node where the printing process lives
     GPU memory used/free/total (MiB): 3230 / 13050 / 16280
------------------
     c_bands:  1 eigenvalues not converged
     ethr =  6.54E-05,  avg # of iterations =  3.0

     total cpu time spent up to now is      205.3 secs

     total energy              =    -542.84412091 Ry
     estimated scf accuracy    <      12.36136299 Ry

     total magnetization       =    10.92 Bohr mag/cell
     absolute magnetization    =    16.36 Bohr mag/cell
[tb_dev] Currently allocated     8.27E+00 Mbytes, locked:    0 /   9
[tb_pin] Currently allocated     0.00E+00 Mbytes, locked:    0 /   0

     iteration # 76     ecut=    60.00 Ry     beta= 0.40
     Davidson diagonalization with overlap

---- Real-time Memory Report at c_bands before calling an iterative solver
          1578 MiB given to the printing process from OS
          1347 MiB allocation reported by mallinfo(arena+hblkhd)
         58379 MiB available memory on the node where the printing process lives
     GPU memory used/free/total (MiB): 3230 / 13050 / 16280
------------------
     ethr =  6.54E-05,  avg # of iterations =  1.9

     total cpu time spent up to now is      207.8 secs

     total energy              =    -542.78844678 Ry
     estimated scf accuracy    <      13.71653064 Ry

     total magnetization       =    10.63 Bohr mag/cell
     absolute magnetization    =    16.25 Bohr mag/cell
[tb_dev] Currently allocated     8.27E+00 Mbytes, locked:    0 /   9
[tb_pin] Currently allocated     0.00E+00 Mbytes, locked:    0 /   0

     iteration # 77     ecut=    60.00 Ry     beta= 0.40
     Davidson diagonalization with overlap

---- Real-time Memory Report at c_bands before calling an iterative solver
          1578 MiB given to the printing process from OS
          1347 MiB allocation reported by mallinfo(arena+hblkhd)
         58379 MiB available memory on the node where the printing process lives
     GPU memory used/free/total (MiB): 3230 / 13050 / 16280
------------------
     ethr =  6.54E-05,  avg # of iterations =  1.2

     total cpu time spent up to now is      210.1 secs

     total energy              =    -542.37029636 Ry
     estimated scf accuracy    <      11.32449135 Ry

     total magnetization       =    11.20 Bohr mag/cell
     absolute magnetization    =    16.47 Bohr mag/cell
[tb_dev] Currently allocated     8.27E+00 Mbytes, locked:    0 /   9
[tb_pin] Currently allocated     0.00E+00 Mbytes, locked:    0 /   0

     iteration # 78     ecut=    60.00 Ry     beta= 0.40
     Davidson diagonalization with overlap

---- Real-time Memory Report at c_bands before calling an iterative solver
          1578 MiB given to the printing process from OS
          1347 MiB allocation reported by mallinfo(arena+hblkhd)
         58380 MiB available memory on the node where the printing process lives
     GPU memory used/free/total (MiB): 3230 / 13050 / 16280
------------------
     ethr =  6.54E-05,  avg # of iterations =  7.9

     total cpu time spent up to now is      214.0 secs

     total energy              =    -542.37746773 Ry
     estimated scf accuracy    <       3.98402683 Ry

     total magnetization       =    12.00 Bohr mag/cell
     absolute magnetization    =    17.64 Bohr mag/cell
[tb_dev] Currently allocated     8.27E+00 Mbytes, locked:    0 /   9
[tb_pin] Currently allocated     0.00E+00 Mbytes, locked:    0 /   0

     iteration # 79     ecut=    60.00 Ry     beta= 0.40
     Davidson diagonalization with overlap

---- Real-time Memory Report at c_bands before calling an iterative solver
          1578 MiB given to the printing process from OS
          1347 MiB allocation reported by mallinfo(arena+hblkhd)
         58380 MiB available memory on the node where the printing process lives
     GPU memory used/free/total (MiB): 3230 / 13050 / 16280
------------------
     ethr =  6.54E-05,  avg # of iterations =  5.3

     total cpu time spent up to now is      217.3 secs

     total energy              =    -542.43458821 Ry
     estimated scf accuracy    <       2.22468420 Ry

     total magnetization       =    12.00 Bohr mag/cell
     absolute magnetization    =    17.17 Bohr mag/cell
[tb_dev] Currently allocated     8.27E+00 Mbytes, locked:    0 /   9
[tb_pin] Currently allocated     0.00E+00 Mbytes, locked:    0 /   0

     iteration # 80     ecut=    60.00 Ry     beta= 0.40
     Davidson diagonalization with overlap

---- Real-time Memory Report at c_bands before calling an iterative solver
          1578 MiB given to the printing process from OS
          1347 MiB allocation reported by mallinfo(arena+hblkhd)
         58380 MiB available memory on the node where the printing process lives
     GPU memory used/free/total (MiB): 3230 / 13050 / 16280
------------------
     ethr =  6.54E-05,  avg # of iterations =  1.1

     total cpu time spent up to now is      219.6 secs

     total energy              =    -542.39518443 Ry
     estimated scf accuracy    <       2.43174504 Ry

     total magnetization       =    12.00 Bohr mag/cell
     absolute magnetization    =    17.10 Bohr mag/cell

     End of self-consistent calculation

     convergence NOT achieved after  80 iterations: stopping

     Writing config to output data dir ./out/aiida.save/
 
     init_run     :     13.21s CPU      4.32s WALL (       1 calls)
     electrons    :    493.15s CPU    214.61s WALL (       1 calls)

     Called by init_run:
     wfcinit      :      1.45s CPU      2.08s WALL (       1 calls)
                                        2.08s GPU  (       1 calls)
     wfcinit:atom :      0.01s CPU      0.05s WALL (      40 calls)
                                        0.05s GPU  (      40 calls)
     wfcinit:wfcr :      0.90s CPU      1.36s WALL (      40 calls)
                                        1.36s GPU  (      40 calls)
     potinit      :      1.72s CPU      0.16s WALL (       1 calls)
     hinit0       :      7.42s CPU      1.20s WALL (       1 calls)

     Called by electrons:
     c_bands      :    211.60s CPU    150.16s WALL (      80 calls)
     sum_band     :     39.83s CPU     41.83s WALL (      80 calls)
     v_of_rho     :     62.32s CPU      5.62s WALL (      81 calls)
     v_h          :      9.01s CPU      0.80s WALL (      81 calls)
     v_xc         :     53.30s CPU      4.82s WALL (      81 calls)
     newd         :     89.72s CPU      8.50s WALL (      81 calls)
                                        8.50s GPU  (      81 calls)
     mix_rho      :     64.51s CPU      6.21s WALL (      80 calls)

     Called by c_bands:
     init_us_2    :     11.23s CPU     10.34s WALL (    6440 calls)
     init_us_2:gp :     11.08s CPU     10.22s WALL (    6440 calls)
     cegterg      :    166.92s CPU    124.20s WALL (    3202 calls)

     Called by sum_band:
     sum_band:wei :      0.13s CPU      0.14s WALL (      80 calls)
                                        0.13s GPU  (      80 calls)
     sum_band:loo :     27.57s CPU     29.41s WALL (      80 calls)
                                       29.41s GPU  (      80 calls)
     sum_band:buf :      7.77s CPU      8.02s WALL (    3200 calls)
                                        7.99s GPU  (    3200 calls)
     sum_band:ini :      3.96s CPU      4.56s WALL (    3200 calls)
                                        4.54s GPU  (    3200 calls)
     sum_band:cal :      0.10s CPU      1.31s WALL (    3200 calls)
                                        0.98s GPU  (    3200 calls)
     sum_band:bec :      0.83s CPU      0.90s WALL (    3200 calls)
                                        0.88s GPU  (    3200 calls)
     addusdens    :      8.34s CPU      8.50s WALL (      80 calls)
                                        8.50s GPU  (      80 calls)
     addusd:skk   :      0.04s CPU      0.04s WALL (     240 calls)
                                        0.04s GPU  (     240 calls)

     Called by *egterg:
     cdiaghg      :     41.38s CPU     34.51s WALL (   11916 calls)
                                       34.42s GPU  (   11916 calls)
     cegterg:over :      3.95s CPU      3.05s WALL (    8714 calls)
     cegterg:upda :      4.48s CPU      3.44s WALL (    8714 calls)
     cegterg:last :      2.02s CPU      1.62s WALL (    4873 calls)
     h_psi        :    102.90s CPU     73.31s WALL (   11956 calls)
                                       73.15s GPU  (   11956 calls)
     s_psi        :      2.28s CPU      3.87s WALL (   11956 calls)
                                        3.57s GPU  (   11956 calls)
     g_psi        :      0.09s CPU      0.39s WALL (    8714 calls)
                                        0.34s GPU  (    8714 calls)

     Called by h_psi:
     h_psi:calbec :      0.59s CPU      3.14s WALL (   11956 calls)
                                        3.06s GPU  (   11956 calls)
     vloc_psi     :     89.70s CPU     64.31s WALL (   11956 calls)
                                       64.24s GPU  (   11956 calls)
     add_vuspsi   :      3.63s CPU      4.67s WALL (   11956 calls)
                                        4.60s GPU  (   11956 calls)

     General routines
     calbec       :      0.50s CPU      0.39s WALL (   15156 calls)
     fft          :      3.22s CPU      0.77s WALL (    2023 calls)
                                        0.60s GPU  (    1861 calls)
     ffts         :      0.10s CPU      0.08s WALL (     322 calls)
                                        0.02s GPU  (     160 calls)
     fftw         :      1.87s CPU     53.84s WALL (   59754 calls)
                                       53.44s GPU  (   59754 calls)
     interpolate  :      9.39s CPU      0.82s WALL (     162 calls)
     davcio       :      0.61s CPU      0.41s WALL (      58 calls)
 
     Parallel routines
 
     PWSCF        :   8m29.05s CPU   3m40.13s WALL

 
   This run was terminated on:  17:20:40  22Oct2023            

=------------------------------------------------------------------------------=
   JOB DONE.
=------------------------------------------------------------------------------=
