
     Program PWSCF v.7.2 starts on 19Dec2023 at 23:45:31 
        Git branch: develop
        Last git commit: 9055681be6fc8200e6fffe76ed5fda34c2696339
        Last git commit date: Wed Nov 8 16:29:39 2023 +0000
        Last git commit subject: Merge branch 'calbec_fix' into 'develop'

     This program is part of the open-source Quantum ESPRESSO suite
     for quantum simulation of materials; please cite
         "P. Giannozzi et al., J. Phys.:Condens. Matter 21 395502 (2009);
         "P. Giannozzi et al., J. Phys.:Condens. Matter 29 465901 (2017);
         "P. Giannozzi et al., J. Chem. Phys. 152 154105 (2020);
          URL http://www.quantum-espresso.org", 
     in publications or presentations arising from this work. More details at
     http://www.quantum-espresso.org/quote

     Parallel version (MPI), running on    56 processors

     MPI processes distributed on     1 nodes
     492623 MiB available memory on the printing compute node when the environment starts

     Reading input from aiida.in

     Current dimensions of program PWSCF are:
     Max number of different atomic species (ntypx) = 10
     Max number of k-points (npk) =  40000
     Max angular momentum in pseudopotentials (lmaxx) =  4
     file Ba.pbesol-spn-kjpaw_psl.1.0.0.UPF: wavefunction(s)  5S 6S renormalized
     file Nb.pbesol-spn-kjpaw_psl.0.3.0.UPF: wavefunction(s)  4S 4P renormalized
     file O.pbesol-n-kjpaw_psl.0.1.UPF: wavefunction(s)  2P renormalized
     Message from routine setup:
     using ibrav=0 with symmetry is DISCOURAGED, use correct ibrav instead

     K-points division:     npool     =       7
     R & G space division:  proc/nbgrp/npool/nimage =       8
     Subspace diagonalization in iterative solution of the eigenvalue problem:
     a serial algorithm will be used


     Parallelization info
     --------------------
     sticks:   dense  smooth     PW     G-vecs:    dense   smooth      PW
     Min         568     284     99                15018     5314    1110
     Max         569     285    100                15019     5315    1111
     Sum        4551    2277    797               120147    42513    8885

     Using Slab Decomposition



     bravais-lattice index     =            0
     lattice parameter (alat)  =      12.6669  a.u.
     unit-cell volume          =     889.9875 (a.u.)^3
     number of atoms/cell      =           10
     number of atomic types    =            3
     number of electrons       =        85.00
     number of Kohn-Sham states=           56
     kinetic-energy cutoff     =      50.0000  Ry
     charge density cutoff     =     400.0000  Ry
     scf convergence threshold =      2.0E-09
     mixing beta               =       0.4000
     number of iterations used =            8  plain     mixing
     Exchange-correlation= SLA  PW   PSX  PSC
                           (   1   4  10   8   0   0   0)

     celldm(1)=  12.666889  celldm(2)=   0.000000  celldm(3)=   0.000000
     celldm(4)=   0.000000  celldm(5)=   0.000000  celldm(6)=   0.000000

     crystal axes: (cart. coord. in units of alat)
               a(1) = (   0.852846   0.492391   0.173797 )  
               a(2) = (  -0.852846   0.492391   0.173797 )  
               a(3) = (  -0.000000  -0.984781   0.173797 )  

     reciprocal axes: (cart. coord. in units 2 pi/alat)
               b(1) = (  0.586272  0.338485  1.917946 )  
               b(2) = ( -0.586272  0.338485  1.917946 )  
               b(3) = ( -0.000000 -0.676969  1.917946 )  


     PseudoPot. # 1 for Ba read from file:
     ./pseudo/Ba.pbesol-spn-kjpaw_psl.1.0.0.UPF
     MD5 check sum: f28c4a63d325c1a0d00fd3a4f19b8d73
     Pseudo is Projector augmented-wave + core cor, Zval = 10.0
     Generated using "atomic" code by A. Dal Corso  v.6.0 svn rev. 13079
     Shape of augmentation charge: PSQ
     Using radial grid of 1251 points,  7 beta functions with: 
                l(1) =   0
                l(2) =   0
                l(3) =   0
                l(4) =   1
                l(5) =   1
                l(6) =   2
                l(7) =   2
     Q(r) pseudized with 0 coefficients 


     PseudoPot. # 2 for Nb read from file:
     ./pseudo/Nb.pbesol-spn-kjpaw_psl.0.3.0.UPF
     MD5 check sum: 3501bca1474143575298708b2d32ca28
     Pseudo is Projector augmented-wave + core cor, Zval = 13.0
     Generated using "atomic" code by A. Dal Corso  v.6.0 svn rev. 13079
     Shape of augmentation charge: PSQ
     Using radial grid of 1227 points,  6 beta functions with: 
                l(1) =   0
                l(2) =   0
                l(3) =   1
                l(4) =   1
                l(5) =   2
                l(6) =   2
     Q(r) pseudized with 0 coefficients 


     PseudoPot. # 3 for O  read from file:
     ./pseudo/O.pbesol-n-kjpaw_psl.0.1.UPF
     MD5 check sum: 81d73d1479e654e5638b0319f0d6c2c7
     Pseudo is Projector augmented-wave + core cor, Zval =  6.0
     Generated using "atomic" code by A. Dal Corso  v.6.0 svn rev. 13079
     Shape of augmentation charge: BESSEL
     Using radial grid of 1095 points,  4 beta functions with: 
                l(1) =   0
                l(2) =   0
                l(3) =   1
                l(4) =   1
     Q(r) pseudized with 0 coefficients 


     atomic species   valence    mass     pseudopotential
     Ba               10.00   137.32700     Ba( 1.00)
     Nb               13.00    92.90638     Nb( 1.00)
     O                 6.00    15.99940     O ( 1.00)

     Starting magnetic structure 
     atomic species   magnetization
     Ba              0.100
     Nb              0.385
     O               0.100

      6 Sym. Ops. (no inversion) found


                                    s                        frac. trans.

      isym =  1     identity                                     

 cryst.   s( 1) = (     1          0          0      )
                  (     0          1          0      )
                  (     0          0          1      )

 cart.    s( 1) = (  1.0000000 -0.0000000 -0.0000000 )
                  ( -0.0000000  1.0000000  0.0000000 )
                  (  0.0000000  0.0000000  1.0000000 )


      isym =  2     120 deg rotation - cryst. axis [0,0,1]       

 cryst.   s( 2) = (     0          1          0      )
                  (     0          0          1      )
                  (     1          0          0      )

 cart.    s( 2) = ( -0.5000000 -0.8660254  0.0000000 )
                  (  0.8660254 -0.5000000  0.0000000 )
                  (  0.0000000 -0.0000000  1.0000000 )


      isym =  3     120 deg rotation - cryst. axis [0,0,-1]      

 cryst.   s( 3) = (     0          0          1      )
                  (     1          0          0      )
                  (     0          1          0      )

 cart.    s( 3) = ( -0.5000000  0.8660254 -0.0000000 )
                  ( -0.8660254 -0.5000000  0.0000000 )
                  ( -0.0000000  0.0000000  1.0000000 )


      isym =  4     inv. 180 deg rotation - cart. axis [1,0,0]   

 cryst.   s( 4) = (     0          1          0      )
                  (     1          0          0      )
                  (     0          0          1      )

 cart.    s( 4) = ( -1.0000000 -0.0000000 -0.0000000 )
                  (  0.0000000  1.0000000  0.0000000 )
                  ( -0.0000000  0.0000000  1.0000000 )


      isym =  5     inv. 180 deg rotation - cryst. axis [0,1,0]  

 cryst.   s( 5) = (     1          0          0      )
                  (     0          0          1      )
                  (     0          1          0      )

 cart.    s( 5) = (  0.5000000  0.8660254 -0.0000000 )
                  (  0.8660254 -0.5000000  0.0000000 )
                  (  0.0000000  0.0000000  1.0000000 )


      isym =  6     inv. 180 deg rotation - cryst. axis [1,1,0]  

 cryst.   s( 6) = (     0          0          1      )
                  (     0          1          0      )
                  (     1          0          0      )

 cart.    s( 6) = (  0.5000000 -0.8660254  0.0000000 )
                  ( -0.8660254 -0.5000000  0.0000000 )
                  ( -0.0000000 -0.0000000  1.0000000 )


   Cartesian axes

     site n.     atom                  positions (alat units)
         1        Ba     tau(   1) = (   0.0000000   0.0000000  -0.0000000  )
         2        Nb     tau(   2) = (  -0.0000000   0.4822475   0.1751179  )
         3        Nb     tau(   3) = (  -0.4352072   1.2360485   0.1751179  )
         4        Nb     tau(   4) = (   0.4352072   0.2512670   0.3489150  )
         5        O      tau(   5) = (  -0.2225075   1.3338373   0.3412331  )
         6        O      tau(   6) = (   0.2225075   0.3490558   0.5150302  )
         7        O      tau(   7) = (   0.1910375   0.6175565   0.3412331  )
         8        O      tau(   8) = (   0.6618083   0.1251657   0.1674361  )
         9        O      tau(   9) = (   0.4393009   0.5105600   0.1674361  )
        10        O      tau(  10) = (   0.4135449   0.0181692   0.5150302  )

   Crystallographic axes

     site n.     atom                  positions (cryst. coord.)
         1        Ba     tau(   1) = (  0.0000000  0.0000000 -0.0000000  )
         2        Nb     tau(   2) = (  0.4991000  0.4991000  0.0094000  )
         3        Nb     tau(   3) = (  0.4991000  1.0094000 -0.5009000  )
         4        Nb     tau(   4) = (  1.0094000  0.4991000  0.4991000  )
         5        O      tau(   5) = (  0.9755000  1.2364000 -0.2485000  )
         6        O      tau(   6) = (  1.2364000  0.9755000  0.7515000  )
         7        O      tau(   7) = (  0.9755000  0.7515000  0.2364000  )
         8        O      tau(   8) = (  0.7515000 -0.0245000  0.2364000  )
         9        O      tau(   9) = (  0.7515000  0.2364000 -0.0245000  )
        10        O      tau(  10) = (  1.2364000  0.7515000  0.9755000  )

     number of k points=   231  Marzari-Vanderbilt smearing, width (Ry)=  0.0200
                       cart. coord. in units 2pi/alat
        k(    1) = (   0.0000000   0.0000000   0.0000000), wk =   0.0004552
        k(    2) = (  -0.0000000  -0.0520745   0.1475343), wk =   0.0027310
        k(    3) = (  -0.0000000  -0.1041491   0.2950686), wk =   0.0027310
        k(    4) = (  -0.0000000  -0.1562236   0.4426029), wk =   0.0027310
        k(    5) = (  -0.0000000  -0.2082982   0.5901372), wk =   0.0027310
        k(    6) = (  -0.0000000  -0.2603727   0.7376715), wk =   0.0027310
        k(    7) = (  -0.0000000  -0.3124473   0.8852058), wk =   0.0027310
        k(    8) = (  -0.0450979  -0.0260373   0.2950686), wk =   0.0027310
        k(    9) = (  -0.0450979  -0.0781118   0.4426029), wk =   0.0054620
        k(   10) = (  -0.0450979  -0.1301864   0.5901372), wk =   0.0054620
        k(   11) = (  -0.0450979  -0.1822609   0.7376715), wk =   0.0054620
        k(   12) = (  -0.0450979  -0.2343355   0.8852058), wk =   0.0054620
        k(   13) = (  -0.0450979  -0.2864100   1.0327401), wk =   0.0054620
        k(   14) = (  -0.0450979   0.3384846  -0.7376715), wk =   0.0054620
        k(   15) = (  -0.0450979   0.2864100  -0.5901372), wk =   0.0054620
        k(   16) = (  -0.0450979   0.2343355  -0.4426029), wk =   0.0054620
        k(   17) = (  -0.0450979   0.1822609  -0.2950686), wk =   0.0054620
        k(   18) = (  -0.0450979   0.1301864  -0.1475343), wk =   0.0054620
        k(   19) = (  -0.0450979   0.0781118  -0.0000000), wk =   0.0027310
        k(   20) = (  -0.0901958  -0.0520745   0.5901372), wk =   0.0027310
        k(   21) = (  -0.0901958  -0.1041491   0.7376715), wk =   0.0054620
        k(   22) = (  -0.0901958  -0.1562236   0.8852058), wk =   0.0054620
        k(   23) = (  -0.0901958  -0.2082982   1.0327401), wk =   0.0054620
        k(   24) = (  -0.0901958  -0.2603727   1.1802744), wk =   0.0054620
        k(   25) = (  -0.0901958   0.3645218  -0.5901372), wk =   0.0054620
        k(   26) = (  -0.0901958   0.3124473  -0.4426029), wk =   0.0054620
        k(   27) = (  -0.0901958   0.2603727  -0.2950686), wk =   0.0054620
        k(   28) = (  -0.0901958   0.2082982  -0.1475343), wk =   0.0054620
        k(   29) = (  -0.0901958   0.1562236  -0.0000000), wk =   0.0027310
        k(   30) = (  -0.1352936  -0.0781118   0.8852058), wk =   0.0027310
        k(   31) = (  -0.1352936  -0.1301864   1.0327401), wk =   0.0054620
        k(   32) = (  -0.1352936  -0.1822609   1.1802744), wk =   0.0054620
        k(   33) = (  -0.1352936  -0.2343355   1.3278087), wk =   0.0054620
        k(   34) = (  -0.1352936   0.3905591  -0.4426029), wk =   0.0054620
        k(   35) = (  -0.1352936   0.3384846  -0.2950686), wk =   0.0054620
        k(   36) = (  -0.1352936   0.2864100  -0.1475343), wk =   0.0054620
        k(   37) = (  -0.1352936   0.2343355  -0.0000000), wk =   0.0027310
        k(   38) = (  -0.1803915  -0.1041491   1.1802744), wk =   0.0027310
        k(   39) = (  -0.1803915  -0.1562236   1.3278087), wk =   0.0054620
        k(   40) = (  -0.1803915  -0.2082982   1.4753430), wk =   0.0054620
        k(   41) = (  -0.1803915   0.4165964  -0.2950686), wk =   0.0054620
        k(   42) = (  -0.1803915   0.3645218  -0.1475343), wk =   0.0054620
        k(   43) = (  -0.1803915   0.3124473  -0.0000000), wk =   0.0027310
        k(   44) = (  -0.2254894  -0.1301864   1.4753430), wk =   0.0027310
        k(   45) = (  -0.2254894  -0.1822609   1.6228773), wk =   0.0054620
        k(   46) = (  -0.2254894   0.4426337  -0.1475343), wk =   0.0054620
        k(   47) = (  -0.2254894   0.3905591  -0.0000000), wk =   0.0027310
        k(   48) = (  -0.2705873  -0.1562236   1.7704116), wk =   0.0027310
        k(   49) = (  -0.2705873   0.4686709  -0.0000000), wk =   0.0027310
        k(   50) = (   0.0000000   0.0000000   0.4426029), wk =   0.0009103
        k(   51) = (   0.0000000  -0.0520745   0.5901372), wk =   0.0027310
        k(   52) = (   0.0000000  -0.1041491   0.7376715), wk =   0.0027310
        k(   53) = (   0.0000000  -0.1562236   0.8852058), wk =   0.0027310
        k(   54) = (   0.0000000  -0.2082982   1.0327401), wk =   0.0027310
        k(   55) = (  -0.0000000  -0.2603727   1.1802744), wk =   0.0027310
        k(   56) = (   0.0000000   0.3645218  -0.5901372), wk =   0.0027310
        k(   57) = (   0.0000000   0.3124473  -0.4426029), wk =   0.0027310
        k(   58) = (   0.0000000   0.2603727  -0.2950686), wk =   0.0027310
        k(   59) = (   0.0000000   0.2082982  -0.1475343), wk =   0.0027310
        k(   60) = (   0.0000000   0.1562236  -0.0000000), wk =   0.0027310
        k(   61) = (   0.0000000   0.1041491   0.1475343), wk =   0.0027310
        k(   62) = (  -0.0450979  -0.0260373   0.7376715), wk =   0.0027310
        k(   63) = (  -0.0450979  -0.0781118   0.8852058), wk =   0.0054620
        k(   64) = (  -0.0450979  -0.1301864   1.0327401), wk =   0.0054620
        k(   65) = (  -0.0450979  -0.1822609   1.1802744), wk =   0.0054620
        k(   66) = (  -0.0450979  -0.2343355   1.3278087), wk =   0.0054620
        k(   67) = (  -0.0450979   0.3905591  -0.4426029), wk =   0.0054620
        k(   68) = (  -0.0450979   0.3384846  -0.2950686), wk =   0.0054620
        k(   69) = (  -0.0450979   0.2864100  -0.1475343), wk =   0.0054620
        k(   70) = (  -0.0450979   0.2343355  -0.0000000), wk =   0.0054620
        k(   71) = (  -0.0450979   0.1822609   0.1475343), wk =   0.0054620
        k(   72) = (  -0.0450979   0.1301864   0.2950686), wk =   0.0054620
        k(   73) = (  -0.0901958  -0.0520745   1.0327401), wk =   0.0027310
        k(   74) = (  -0.0901958  -0.1041491   1.1802744), wk =   0.0054620
        k(   75) = (  -0.0901958  -0.1562236   1.3278087), wk =   0.0054620
        k(   76) = (  -0.0901958  -0.2082982   1.4753430), wk =   0.0054620
        k(   77) = (  -0.0901958   0.4165964  -0.2950686), wk =   0.0054620
        k(   78) = (  -0.0901958   0.3645218  -0.1475343), wk =   0.0054620
        k(   79) = (  -0.0901958   0.3124473  -0.0000000), wk =   0.0054620
        k(   80) = (  -0.0901958   0.2603727   0.1475343), wk =   0.0054620
        k(   81) = (  -0.0901958   0.2082982   0.2950686), wk =   0.0054620
        k(   82) = (  -0.0901958   0.1562236   0.4426029), wk =   0.0054620
        k(   83) = (  -0.1352936  -0.0781118   1.3278087), wk =   0.0027310
        k(   84) = (  -0.1352936  -0.1301864   1.4753430), wk =   0.0054620
        k(   85) = (  -0.1352936  -0.1822609   1.6228773), wk =   0.0054620
        k(   86) = (  -0.1352936   0.4426337  -0.1475343), wk =   0.0054620
        k(   87) = (  -0.1352936   0.3905591  -0.0000000), wk =   0.0054620
        k(   88) = (  -0.1352936   0.3384846   0.1475343), wk =   0.0054620
        k(   89) = (  -0.1352936   0.2864100   0.2950686), wk =   0.0054620
        k(   90) = (  -0.1352936   0.2343355   0.4426029), wk =   0.0054620
        k(   91) = (  -0.1352936   0.1822609   0.5901372), wk =   0.0054620
        k(   92) = (  -0.1803915  -0.1041491   1.6228773), wk =   0.0027310
        k(   93) = (  -0.1803915  -0.1562236   1.7704116), wk =   0.0054620
        k(   94) = (  -0.1803915   0.4686709  -0.0000000), wk =   0.0054620
        k(   95) = (  -0.1803915   0.4165964   0.1475343), wk =   0.0054620
        k(   96) = (  -0.1803915   0.3645218   0.2950686), wk =   0.0054620
        k(   97) = (  -0.1803915   0.3124473   0.4426029), wk =   0.0054620
        k(   98) = (  -0.1803915   0.2603727   0.5901372), wk =   0.0054620
        k(   99) = (  -0.1803915   0.2082982   0.7376715), wk =   0.0054620
        k(  100) = (  -0.2254894  -0.1301864   1.9179458), wk =   0.0027310
        k(  101) = (  -0.2254894   0.4947082   0.1475343), wk =   0.0054620
        k(  102) = (  -0.2254894   0.4426337   0.2950686), wk =   0.0054620
        k(  103) = (  -0.2254894   0.3905591   0.4426029), wk =   0.0054620
        k(  104) = (  -0.2254894   0.3384846   0.5901372), wk =   0.0054620
        k(  105) = (  -0.2254894   0.2864100   0.7376715), wk =   0.0054620
        k(  106) = (  -0.2254894   0.2343355   0.8852058), wk =   0.0054620
        k(  107) = (   0.3156852   0.1822609  -1.6228773), wk =   0.0027310
        k(  108) = (   0.3156852   0.1301864  -1.4753430), wk =   0.0054620
        k(  109) = (   0.3156852   0.0781118  -1.3278087), wk =   0.0054620
        k(  110) = (   0.3156852   0.0260373  -1.1802744), wk =   0.0054620
        k(  111) = (   0.3156852  -0.0260373  -1.0327401), wk =   0.0054620
        k(  112) = (   0.2705873   0.1562236  -1.3278087), wk =   0.0027310
        k(  113) = (   0.2705873   0.1041491  -1.1802744), wk =   0.0054620
        k(  114) = (   0.2705873   0.0520745  -1.0327401), wk =   0.0054620
        k(  115) = (   0.2705873   0.0000000  -0.8852058), wk =   0.0054620
        k(  116) = (   0.2254894   0.1301864  -1.0327401), wk =   0.0027310
        k(  117) = (   0.2254894   0.0781118  -0.8852058), wk =   0.0054620
        k(  118) = (   0.2254894   0.0260373  -0.7376715), wk =   0.0054620
        k(  119) = (   0.1803915   0.1041491  -0.7376715), wk =   0.0027310
        k(  120) = (   0.1803915   0.0520745  -0.5901372), wk =   0.0054620
        k(  121) = (   0.1352936   0.0781118  -0.4426029), wk =   0.0027310
        k(  122) = (   0.0000000   0.0000000   0.8852058), wk =   0.0009103
        k(  123) = (   0.0000000  -0.0520745   1.0327401), wk =   0.0027310
        k(  124) = (   0.0000000  -0.1041491   1.1802744), wk =   0.0027310
        k(  125) = (   0.0000000  -0.1562236   1.3278087), wk =   0.0027310
        k(  126) = (   0.0000000  -0.2082982   1.4753430), wk =   0.0027310
        k(  127) = (   0.0000000   0.4165964  -0.2950686), wk =   0.0027310
        k(  128) = (   0.0000000   0.3645218  -0.1475343), wk =   0.0027310
        k(  129) = (   0.0000000   0.3124473  -0.0000000), wk =   0.0027310
        k(  130) = (   0.0000000   0.2603727   0.1475343), wk =   0.0027310
        k(  131) = (   0.0000000   0.2082982   0.2950686), wk =   0.0027310
        k(  132) = (  -0.0450979  -0.0260373   1.1802744), wk =   0.0027310
        k(  133) = (  -0.0450979  -0.0781118   1.3278087), wk =   0.0054620
        k(  134) = (  -0.0450979  -0.1301864   1.4753430), wk =   0.0054620
        k(  135) = (  -0.0450979  -0.1822609   1.6228773), wk =   0.0054620
        k(  136) = (  -0.0450979   0.4426337  -0.1475343), wk =   0.0054620
        k(  137) = (  -0.0450979   0.3905591  -0.0000000), wk =   0.0054620
        k(  138) = (  -0.0450979   0.3384846   0.1475343), wk =   0.0054620
        k(  139) = (  -0.0450979   0.2864100   0.2950686), wk =   0.0054620
        k(  140) = (  -0.0450979   0.2343355   0.4426029), wk =   0.0054620
        k(  141) = (  -0.0901958  -0.0520745   1.4753430), wk =   0.0027310
        k(  142) = (  -0.0901958  -0.1041491   1.6228773), wk =   0.0054620
        k(  143) = (  -0.0901958  -0.1562236   1.7704116), wk =   0.0054620
        k(  144) = (  -0.0901958   0.4686709  -0.0000000), wk =   0.0054620
        k(  145) = (  -0.0901958   0.4165964   0.1475343), wk =   0.0054620
        k(  146) = (  -0.0901958   0.3645218   0.2950686), wk =   0.0054620
        k(  147) = (  -0.0901958   0.3124473   0.4426029), wk =   0.0054620
        k(  148) = (  -0.0901958   0.2603727   0.5901372), wk =   0.0054620
        k(  149) = (  -0.1352936  -0.0781118   1.7704116), wk =   0.0027310
        k(  150) = (  -0.1352936  -0.1301864   1.9179458), wk =   0.0054620
        k(  151) = (  -0.1352936   0.4947082   0.1475343), wk =   0.0054620
        k(  152) = (  -0.1352936   0.4426337   0.2950686), wk =   0.0054620
        k(  153) = (  -0.1352936   0.3905591   0.4426029), wk =   0.0054620
        k(  154) = (  -0.1352936   0.3384846   0.5901372), wk =   0.0054620
        k(  155) = (  -0.1352936   0.2864100   0.7376715), wk =   0.0054620
        k(  156) = (  -0.1803915  -0.1041491   2.0654801), wk =   0.0027310
        k(  157) = (  -0.1803915   0.5207455   0.2950686), wk =   0.0054620
        k(  158) = (  -0.1803915   0.4686709   0.4426029), wk =   0.0054620
        k(  159) = (  -0.1803915   0.4165964   0.5901372), wk =   0.0054620
        k(  160) = (  -0.1803915   0.3645218   0.7376715), wk =   0.0054620
        k(  161) = (  -0.1803915   0.3124473   0.8852058), wk =   0.0054620
        k(  162) = (   0.3607831   0.2082982  -1.4753430), wk =   0.0027310
        k(  163) = (   0.3607831   0.1562236  -1.3278087), wk =   0.0054620
        k(  164) = (   0.3607831   0.1041491  -1.1802744), wk =   0.0054620
        k(  165) = (   0.3607831   0.0520745  -1.0327401), wk =   0.0054620
        k(  166) = (   0.3156852   0.1822609  -1.1802744), wk =   0.0027310
        k(  167) = (   0.3156852   0.1301864  -1.0327401), wk =   0.0054620
        k(  168) = (   0.3156852   0.0781118  -0.8852058), wk =   0.0054620
        k(  169) = (   0.2705873   0.1562236  -0.8852058), wk =   0.0027310
        k(  170) = (   0.2705873   0.1041491  -0.7376715), wk =   0.0054620
        k(  171) = (   0.2254894   0.1301864  -0.5901372), wk =   0.0027310
        k(  172) = (  -0.0000000   0.0000000   1.3278087), wk =   0.0009103
        k(  173) = (  -0.0000000  -0.0520745   1.4753430), wk =   0.0027310
        k(  174) = (  -0.0000000  -0.1041491   1.6228773), wk =   0.0027310
        k(  175) = (  -0.0000000  -0.1562236   1.7704116), wk =   0.0027310
        k(  176) = (  -0.0000000   0.4686709  -0.0000000), wk =   0.0027310
        k(  177) = (  -0.0000000   0.4165964   0.1475343), wk =   0.0027310
        k(  178) = (  -0.0000000   0.3645218   0.2950686), wk =   0.0027310
        k(  179) = (  -0.0000000   0.3124473   0.4426029), wk =   0.0027310
        k(  180) = (  -0.0450979  -0.0260373   1.6228773), wk =   0.0027310
        k(  181) = (  -0.0450979  -0.0781118   1.7704116), wk =   0.0054620
        k(  182) = (  -0.0450979  -0.1301864   1.9179458), wk =   0.0054620
        k(  183) = (  -0.0450979   0.4947082   0.1475343), wk =   0.0054620
        k(  184) = (  -0.0450979   0.4426337   0.2950686), wk =   0.0054620
        k(  185) = (  -0.0450979   0.3905591   0.4426029), wk =   0.0054620
        k(  186) = (  -0.0450979   0.3384846   0.5901372), wk =   0.0054620
        k(  187) = (  -0.0901958  -0.0520745   1.9179458), wk =   0.0027310
        k(  188) = (  -0.0901958  -0.1041491   2.0654801), wk =   0.0054620
        k(  189) = (  -0.0901958   0.5207455   0.2950686), wk =   0.0054620
        k(  190) = (  -0.0901958   0.4686709   0.4426029), wk =   0.0054620
        k(  191) = (  -0.0901958   0.4165964   0.5901372), wk =   0.0054620
        k(  192) = (  -0.0901958   0.3645218   0.7376715), wk =   0.0054620
        k(  193) = (  -0.1352936  -0.0781118   2.2130144), wk =   0.0027310
        k(  194) = (  -0.1352936   0.5467828   0.4426029), wk =   0.0054620
        k(  195) = (  -0.1352936   0.4947082   0.5901372), wk =   0.0054620
        k(  196) = (  -0.1352936   0.4426337   0.7376715), wk =   0.0054620
        k(  197) = (  -0.1352936   0.3905591   0.8852058), wk =   0.0054620
        k(  198) = (   0.4058809   0.2343355  -1.3278087), wk =   0.0027310
        k(  199) = (   0.4058809   0.1822609  -1.1802744), wk =   0.0054620
        k(  200) = (   0.4058809   0.1301864  -1.0327401), wk =   0.0054620
        k(  201) = (   0.3607831   0.2082982  -1.0327401), wk =   0.0027310
        k(  202) = (   0.3607831   0.1562236  -0.8852058), wk =   0.0054620
        k(  203) = (   0.3156852   0.1822609  -0.7376715), wk =   0.0027310
        k(  204) = (   0.0000000   0.0000000   1.7704116), wk =   0.0009103
        k(  205) = (   0.0000000  -0.0520745   1.9179458), wk =   0.0027310
        k(  206) = (   0.0000000  -0.1041491   2.0654801), wk =   0.0027310
        k(  207) = (   0.0000000   0.5207455   0.2950686), wk =   0.0027310
        k(  208) = (   0.0000000   0.4686709   0.4426029), wk =   0.0027310
        k(  209) = (   0.0000000   0.4165964   0.5901372), wk =   0.0027310
        k(  210) = (  -0.0450979  -0.0260373   2.0654801), wk =   0.0027310
        k(  211) = (  -0.0450979  -0.0781118   2.2130144), wk =   0.0054620
        k(  212) = (  -0.0450979   0.5467828   0.4426029), wk =   0.0054620
        k(  213) = (  -0.0450979   0.4947082   0.5901372), wk =   0.0054620
        k(  214) = (  -0.0450979   0.4426337   0.7376715), wk =   0.0054620
        k(  215) = (  -0.0901958  -0.0520745   2.3605487), wk =   0.0027310
        k(  216) = (  -0.0901958   0.5728200   0.5901372), wk =   0.0054620
        k(  217) = (  -0.0901958   0.5207455   0.7376715), wk =   0.0054620
        k(  218) = (  -0.0901958   0.4686709   0.8852058), wk =   0.0054620
        k(  219) = (   0.4509788   0.2603727  -1.1802744), wk =   0.0027310
        k(  220) = (   0.4509788   0.2082982  -1.0327401), wk =   0.0054620
        k(  221) = (   0.4058809   0.2343355  -0.8852058), wk =   0.0027310
        k(  222) = (   0.0000000   0.0000000   2.2130144), wk =   0.0009103
        k(  223) = (   0.0000000  -0.0520745   2.3605487), wk =   0.0027310
        k(  224) = (   0.0000000   0.5728200   0.5901372), wk =   0.0027310
        k(  225) = (   0.0000000   0.5207455   0.7376715), wk =   0.0027310
        k(  226) = (  -0.0450979  -0.0260373   2.5080830), wk =   0.0027310
        k(  227) = (  -0.0450979   0.5988573   0.7376715), wk =   0.0054620
        k(  228) = (  -0.0450979   0.5467828   0.8852058), wk =   0.0054620
        k(  229) = (   0.4960767   0.2864100  -1.0327401), wk =   0.0027310
        k(  230) = (  -0.0000000   0.0000000   2.6556173), wk =   0.0009103
        k(  231) = (  -0.0000000   0.6248946   0.8852058), wk =   0.0027310

                       cryst. coord.
        k(    1) = (   0.0000000   0.0000000   0.0000000), wk =   0.0004552
        k(    2) = (   0.0000000   0.0000000   0.0769231), wk =   0.0027310
        k(    3) = (   0.0000000   0.0000000   0.1538462), wk =   0.0027310
        k(    4) = (  -0.0000000  -0.0000000   0.2307692), wk =   0.0027310
        k(    5) = (   0.0000000   0.0000000   0.3076923), wk =   0.0027310
        k(    6) = (  -0.0000000  -0.0000000   0.3846154), wk =   0.0027310
        k(    7) = (  -0.0000000  -0.0000000   0.4615385), wk =   0.0027310
        k(    8) = (   0.0000000   0.0769231   0.0769231), wk =   0.0027310
        k(    9) = (   0.0000000   0.0769231   0.1538462), wk =   0.0054620
        k(   10) = (   0.0000000   0.0769231   0.2307692), wk =   0.0054620
        k(   11) = (   0.0000000   0.0769231   0.3076923), wk =   0.0054620
        k(   12) = (   0.0000000   0.0769231   0.3846154), wk =   0.0054620
        k(   13) = (  -0.0000000   0.0769231   0.4615385), wk =   0.0054620
        k(   14) = (   0.0000000   0.0769231  -0.4615385), wk =   0.0054620
        k(   15) = (   0.0000000   0.0769231  -0.3846154), wk =   0.0054620
        k(   16) = (   0.0000000   0.0769231  -0.3076923), wk =   0.0054620
        k(   17) = (   0.0000000   0.0769231  -0.2307692), wk =   0.0054620
        k(   18) = (   0.0000000   0.0769231  -0.1538462), wk =   0.0054620
        k(   19) = (   0.0000000   0.0769231  -0.0769231), wk =   0.0027310
        k(   20) = (   0.0000000   0.1538462   0.1538462), wk =   0.0027310
        k(   21) = (   0.0000000   0.1538462   0.2307692), wk =   0.0054620
        k(   22) = (   0.0000000   0.1538462   0.3076923), wk =   0.0054620
        k(   23) = (   0.0000000   0.1538462   0.3846154), wk =   0.0054620
        k(   24) = (   0.0000000   0.1538462   0.4615385), wk =   0.0054620
        k(   25) = (   0.0000000   0.1538462  -0.4615385), wk =   0.0054620
        k(   26) = (   0.0000000   0.1538462  -0.3846154), wk =   0.0054620
        k(   27) = (   0.0000000   0.1538462  -0.3076923), wk =   0.0054620
        k(   28) = (   0.0000000   0.1538462  -0.2307692), wk =   0.0054620
        k(   29) = (   0.0000000   0.1538462  -0.1538462), wk =   0.0027310
        k(   30) = (  -0.0000000   0.2307692   0.2307692), wk =   0.0027310
        k(   31) = (   0.0000000   0.2307692   0.3076923), wk =   0.0054620
        k(   32) = (   0.0000000   0.2307692   0.3846154), wk =   0.0054620
        k(   33) = (  -0.0000000   0.2307692   0.4615385), wk =   0.0054620
        k(   34) = (   0.0000000   0.2307692  -0.4615385), wk =   0.0054620
        k(   35) = (   0.0000000   0.2307692  -0.3846154), wk =   0.0054620
        k(   36) = (   0.0000000   0.2307692  -0.3076923), wk =   0.0054620
        k(   37) = (   0.0000000   0.2307692  -0.2307692), wk =   0.0027310
        k(   38) = (   0.0000000   0.3076923   0.3076923), wk =   0.0027310
        k(   39) = (   0.0000000   0.3076923   0.3846154), wk =   0.0054620
        k(   40) = (   0.0000000   0.3076923   0.4615385), wk =   0.0054620
        k(   41) = (   0.0000000   0.3076923  -0.4615385), wk =   0.0054620
        k(   42) = (   0.0000000   0.3076923  -0.3846154), wk =   0.0054620
        k(   43) = (   0.0000000   0.3076923  -0.3076923), wk =   0.0027310
        k(   44) = (   0.0000000   0.3846154   0.3846154), wk =   0.0027310
        k(   45) = (   0.0000000   0.3846154   0.4615385), wk =   0.0054620
        k(   46) = (   0.0000000   0.3846154  -0.4615385), wk =   0.0054620
        k(   47) = (   0.0000000   0.3846154  -0.3846154), wk =   0.0027310
        k(   48) = (  -0.0000000   0.4615385   0.4615385), wk =   0.0027310
        k(   49) = (   0.0000000   0.4615385  -0.4615385), wk =   0.0027310
        k(   50) = (   0.0769231   0.0769231   0.0769231), wk =   0.0009103
        k(   51) = (   0.0769231   0.0769231   0.1538462), wk =   0.0027310
        k(   52) = (   0.0769231   0.0769231   0.2307692), wk =   0.0027310
        k(   53) = (   0.0769231   0.0769231   0.3076923), wk =   0.0027310
        k(   54) = (   0.0769231   0.0769231   0.3846154), wk =   0.0027310
        k(   55) = (   0.0769231   0.0769231   0.4615385), wk =   0.0027310
        k(   56) = (   0.0769231   0.0769231  -0.4615385), wk =   0.0027310
        k(   57) = (   0.0769231   0.0769231  -0.3846154), wk =   0.0027310
        k(   58) = (   0.0769231   0.0769231  -0.3076923), wk =   0.0027310
        k(   59) = (   0.0769231   0.0769231  -0.2307692), wk =   0.0027310
        k(   60) = (   0.0769231   0.0769231  -0.1538462), wk =   0.0027310
        k(   61) = (   0.0769231   0.0769231  -0.0769231), wk =   0.0027310
        k(   62) = (   0.0769231   0.1538462   0.1538462), wk =   0.0027310
        k(   63) = (   0.0769231   0.1538462   0.2307692), wk =   0.0054620
        k(   64) = (   0.0769231   0.1538462   0.3076923), wk =   0.0054620
        k(   65) = (   0.0769231   0.1538462   0.3846154), wk =   0.0054620
        k(   66) = (   0.0769231   0.1538462   0.4615385), wk =   0.0054620
        k(   67) = (   0.0769231   0.1538462  -0.4615385), wk =   0.0054620
        k(   68) = (   0.0769231   0.1538462  -0.3846154), wk =   0.0054620
        k(   69) = (   0.0769231   0.1538462  -0.3076923), wk =   0.0054620
        k(   70) = (   0.0769231   0.1538462  -0.2307692), wk =   0.0054620
        k(   71) = (   0.0769231   0.1538462  -0.1538462), wk =   0.0054620
        k(   72) = (   0.0769231   0.1538462  -0.0769231), wk =   0.0054620
        k(   73) = (   0.0769231   0.2307692   0.2307692), wk =   0.0027310
        k(   74) = (   0.0769231   0.2307692   0.3076923), wk =   0.0054620
        k(   75) = (   0.0769231   0.2307692   0.3846154), wk =   0.0054620
        k(   76) = (   0.0769231   0.2307692   0.4615385), wk =   0.0054620
        k(   77) = (   0.0769231   0.2307692  -0.4615385), wk =   0.0054620
        k(   78) = (   0.0769231   0.2307692  -0.3846154), wk =   0.0054620
        k(   79) = (   0.0769231   0.2307692  -0.3076923), wk =   0.0054620
        k(   80) = (   0.0769231   0.2307692  -0.2307692), wk =   0.0054620
        k(   81) = (   0.0769231   0.2307692  -0.1538462), wk =   0.0054620
        k(   82) = (   0.0769231   0.2307692  -0.0769231), wk =   0.0054620
        k(   83) = (   0.0769231   0.3076923   0.3076923), wk =   0.0027310
        k(   84) = (   0.0769231   0.3076923   0.3846154), wk =   0.0054620
        k(   85) = (   0.0769231   0.3076923   0.4615385), wk =   0.0054620
        k(   86) = (   0.0769231   0.3076923  -0.4615385), wk =   0.0054620
        k(   87) = (   0.0769231   0.3076923  -0.3846154), wk =   0.0054620
        k(   88) = (   0.0769231   0.3076923  -0.3076923), wk =   0.0054620
        k(   89) = (   0.0769231   0.3076923  -0.2307692), wk =   0.0054620
        k(   90) = (   0.0769231   0.3076923  -0.1538462), wk =   0.0054620
        k(   91) = (   0.0769231   0.3076923  -0.0769231), wk =   0.0054620
        k(   92) = (   0.0769231   0.3846154   0.3846154), wk =   0.0027310
        k(   93) = (   0.0769231   0.3846154   0.4615385), wk =   0.0054620
        k(   94) = (   0.0769231   0.3846154  -0.4615385), wk =   0.0054620
        k(   95) = (   0.0769231   0.3846154  -0.3846154), wk =   0.0054620
        k(   96) = (   0.0769231   0.3846154  -0.3076923), wk =   0.0054620
        k(   97) = (   0.0769231   0.3846154  -0.2307692), wk =   0.0054620
        k(   98) = (   0.0769231   0.3846154  -0.1538462), wk =   0.0054620
        k(   99) = (   0.0769231   0.3846154  -0.0769231), wk =   0.0054620
        k(  100) = (   0.0769231   0.4615385   0.4615385), wk =   0.0027310
        k(  101) = (   0.0769231   0.4615385  -0.4615385), wk =   0.0054620
        k(  102) = (   0.0769231   0.4615385  -0.3846154), wk =   0.0054620
        k(  103) = (   0.0769231   0.4615385  -0.3076923), wk =   0.0054620
        k(  104) = (   0.0769231   0.4615385  -0.2307692), wk =   0.0054620
        k(  105) = (   0.0769231   0.4615385  -0.1538462), wk =   0.0054620
        k(  106) = (   0.0769231   0.4615385  -0.0769231), wk =   0.0054620
        k(  107) = (   0.0769231  -0.4615385  -0.4615385), wk =   0.0027310
        k(  108) = (   0.0769231  -0.4615385  -0.3846154), wk =   0.0054620
        k(  109) = (   0.0769231  -0.4615385  -0.3076923), wk =   0.0054620
        k(  110) = (   0.0769231  -0.4615385  -0.2307692), wk =   0.0054620
        k(  111) = (   0.0769231  -0.4615385  -0.1538462), wk =   0.0054620
        k(  112) = (   0.0769231  -0.3846154  -0.3846154), wk =   0.0027310
        k(  113) = (   0.0769231  -0.3846154  -0.3076923), wk =   0.0054620
        k(  114) = (   0.0769231  -0.3846154  -0.2307692), wk =   0.0054620
        k(  115) = (   0.0769231  -0.3846154  -0.1538462), wk =   0.0054620
        k(  116) = (   0.0769231  -0.3076923  -0.3076923), wk =   0.0027310
        k(  117) = (   0.0769231  -0.3076923  -0.2307692), wk =   0.0054620
        k(  118) = (   0.0769231  -0.3076923  -0.1538462), wk =   0.0054620
        k(  119) = (   0.0769231  -0.2307692  -0.2307692), wk =   0.0027310
        k(  120) = (   0.0769231  -0.2307692  -0.1538462), wk =   0.0054620
        k(  121) = (   0.0769231  -0.1538462  -0.1538462), wk =   0.0027310
        k(  122) = (   0.1538462   0.1538462   0.1538462), wk =   0.0009103
        k(  123) = (   0.1538462   0.1538462   0.2307692), wk =   0.0027310
        k(  124) = (   0.1538462   0.1538462   0.3076923), wk =   0.0027310
        k(  125) = (   0.1538462   0.1538462   0.3846154), wk =   0.0027310
        k(  126) = (   0.1538462   0.1538462   0.4615385), wk =   0.0027310
        k(  127) = (   0.1538462   0.1538462  -0.4615385), wk =   0.0027310
        k(  128) = (   0.1538462   0.1538462  -0.3846154), wk =   0.0027310
        k(  129) = (   0.1538462   0.1538462  -0.3076923), wk =   0.0027310
        k(  130) = (   0.1538462   0.1538462  -0.2307692), wk =   0.0027310
        k(  131) = (   0.1538462   0.1538462  -0.1538462), wk =   0.0027310
        k(  132) = (   0.1538462   0.2307692   0.2307692), wk =   0.0027310
        k(  133) = (   0.1538462   0.2307692   0.3076923), wk =   0.0054620
        k(  134) = (   0.1538462   0.2307692   0.3846154), wk =   0.0054620
        k(  135) = (   0.1538462   0.2307692   0.4615385), wk =   0.0054620
        k(  136) = (   0.1538462   0.2307692  -0.4615385), wk =   0.0054620
        k(  137) = (   0.1538462   0.2307692  -0.3846154), wk =   0.0054620
        k(  138) = (   0.1538462   0.2307692  -0.3076923), wk =   0.0054620
        k(  139) = (   0.1538462   0.2307692  -0.2307692), wk =   0.0054620
        k(  140) = (   0.1538462   0.2307692  -0.1538462), wk =   0.0054620
        k(  141) = (   0.1538462   0.3076923   0.3076923), wk =   0.0027310
        k(  142) = (   0.1538462   0.3076923   0.3846154), wk =   0.0054620
        k(  143) = (   0.1538462   0.3076923   0.4615385), wk =   0.0054620
        k(  144) = (   0.1538462   0.3076923  -0.4615385), wk =   0.0054620
        k(  145) = (   0.1538462   0.3076923  -0.3846154), wk =   0.0054620
        k(  146) = (   0.1538462   0.3076923  -0.3076923), wk =   0.0054620
        k(  147) = (   0.1538462   0.3076923  -0.2307692), wk =   0.0054620
        k(  148) = (   0.1538462   0.3076923  -0.1538462), wk =   0.0054620
        k(  149) = (   0.1538462   0.3846154   0.3846154), wk =   0.0027310
        k(  150) = (   0.1538462   0.3846154   0.4615385), wk =   0.0054620
        k(  151) = (   0.1538462   0.3846154  -0.4615385), wk =   0.0054620
        k(  152) = (   0.1538462   0.3846154  -0.3846154), wk =   0.0054620
        k(  153) = (   0.1538462   0.3846154  -0.3076923), wk =   0.0054620
        k(  154) = (   0.1538462   0.3846154  -0.2307692), wk =   0.0054620
        k(  155) = (   0.1538462   0.3846154  -0.1538462), wk =   0.0054620
        k(  156) = (   0.1538462   0.4615385   0.4615385), wk =   0.0027310
        k(  157) = (   0.1538462   0.4615385  -0.4615385), wk =   0.0054620
        k(  158) = (   0.1538462   0.4615385  -0.3846154), wk =   0.0054620
        k(  159) = (   0.1538462   0.4615385  -0.3076923), wk =   0.0054620
        k(  160) = (   0.1538462   0.4615385  -0.2307692), wk =   0.0054620
        k(  161) = (   0.1538462   0.4615385  -0.1538462), wk =   0.0054620
        k(  162) = (   0.1538462  -0.4615385  -0.4615385), wk =   0.0027310
        k(  163) = (   0.1538462  -0.4615385  -0.3846154), wk =   0.0054620
        k(  164) = (   0.1538462  -0.4615385  -0.3076923), wk =   0.0054620
        k(  165) = (   0.1538462  -0.4615385  -0.2307692), wk =   0.0054620
        k(  166) = (   0.1538462  -0.3846154  -0.3846154), wk =   0.0027310
        k(  167) = (   0.1538462  -0.3846154  -0.3076923), wk =   0.0054620
        k(  168) = (   0.1538462  -0.3846154  -0.2307692), wk =   0.0054620
        k(  169) = (   0.1538462  -0.3076923  -0.3076923), wk =   0.0027310
        k(  170) = (   0.1538462  -0.3076923  -0.2307692), wk =   0.0054620
        k(  171) = (   0.1538462  -0.2307692  -0.2307692), wk =   0.0027310
        k(  172) = (   0.2307692   0.2307692   0.2307692), wk =   0.0009103
        k(  173) = (   0.2307692   0.2307692   0.3076923), wk =   0.0027310
        k(  174) = (   0.2307692   0.2307692   0.3846154), wk =   0.0027310
        k(  175) = (   0.2307692   0.2307692   0.4615385), wk =   0.0027310
        k(  176) = (   0.2307692   0.2307692  -0.4615385), wk =   0.0027310
        k(  177) = (   0.2307692   0.2307692  -0.3846154), wk =   0.0027310
        k(  178) = (   0.2307692   0.2307692  -0.3076923), wk =   0.0027310
        k(  179) = (   0.2307692   0.2307692  -0.2307692), wk =   0.0027310
        k(  180) = (   0.2307692   0.3076923   0.3076923), wk =   0.0027310
        k(  181) = (   0.2307692   0.3076923   0.3846154), wk =   0.0054620
        k(  182) = (   0.2307692   0.3076923   0.4615385), wk =   0.0054620
        k(  183) = (   0.2307692   0.3076923  -0.4615385), wk =   0.0054620
        k(  184) = (   0.2307692   0.3076923  -0.3846154), wk =   0.0054620
        k(  185) = (   0.2307692   0.3076923  -0.3076923), wk =   0.0054620
        k(  186) = (   0.2307692   0.3076923  -0.2307692), wk =   0.0054620
        k(  187) = (   0.2307692   0.3846154   0.3846154), wk =   0.0027310
        k(  188) = (   0.2307692   0.3846154   0.4615385), wk =   0.0054620
        k(  189) = (   0.2307692   0.3846154  -0.4615385), wk =   0.0054620
        k(  190) = (   0.2307692   0.3846154  -0.3846154), wk =   0.0054620
        k(  191) = (   0.2307692   0.3846154  -0.3076923), wk =   0.0054620
        k(  192) = (   0.2307692   0.3846154  -0.2307692), wk =   0.0054620
        k(  193) = (   0.2307692   0.4615385   0.4615385), wk =   0.0027310
        k(  194) = (   0.2307692   0.4615385  -0.4615385), wk =   0.0054620
        k(  195) = (   0.2307692   0.4615385  -0.3846154), wk =   0.0054620
        k(  196) = (   0.2307692   0.4615385  -0.3076923), wk =   0.0054620
        k(  197) = (   0.2307692   0.4615385  -0.2307692), wk =   0.0054620
        k(  198) = (   0.2307692  -0.4615385  -0.4615385), wk =   0.0027310
        k(  199) = (   0.2307692  -0.4615385  -0.3846154), wk =   0.0054620
        k(  200) = (   0.2307692  -0.4615385  -0.3076923), wk =   0.0054620
        k(  201) = (   0.2307692  -0.3846154  -0.3846154), wk =   0.0027310
        k(  202) = (   0.2307692  -0.3846154  -0.3076923), wk =   0.0054620
        k(  203) = (   0.2307692  -0.3076923  -0.3076923), wk =   0.0027310
        k(  204) = (   0.3076923   0.3076923   0.3076923), wk =   0.0009103
        k(  205) = (   0.3076923   0.3076923   0.3846154), wk =   0.0027310
        k(  206) = (   0.3076923   0.3076923   0.4615385), wk =   0.0027310
        k(  207) = (   0.3076923   0.3076923  -0.4615385), wk =   0.0027310
        k(  208) = (   0.3076923   0.3076923  -0.3846154), wk =   0.0027310
        k(  209) = (   0.3076923   0.3076923  -0.3076923), wk =   0.0027310
        k(  210) = (   0.3076923   0.3846154   0.3846154), wk =   0.0027310
        k(  211) = (   0.3076923   0.3846154   0.4615385), wk =   0.0054620
        k(  212) = (   0.3076923   0.3846154  -0.4615385), wk =   0.0054620
        k(  213) = (   0.3076923   0.3846154  -0.3846154), wk =   0.0054620
        k(  214) = (   0.3076923   0.3846154  -0.3076923), wk =   0.0054620
        k(  215) = (   0.3076923   0.4615385   0.4615385), wk =   0.0027310
        k(  216) = (   0.3076923   0.4615385  -0.4615385), wk =   0.0054620
        k(  217) = (   0.3076923   0.4615385  -0.3846154), wk =   0.0054620
        k(  218) = (   0.3076923   0.4615385  -0.3076923), wk =   0.0054620
        k(  219) = (   0.3076923  -0.4615385  -0.4615385), wk =   0.0027310
        k(  220) = (   0.3076923  -0.4615385  -0.3846154), wk =   0.0054620
        k(  221) = (   0.3076923  -0.3846154  -0.3846154), wk =   0.0027310
        k(  222) = (   0.3846154   0.3846154   0.3846154), wk =   0.0009103
        k(  223) = (   0.3846154   0.3846154   0.4615385), wk =   0.0027310
        k(  224) = (   0.3846154   0.3846154  -0.4615385), wk =   0.0027310
        k(  225) = (   0.3846154   0.3846154  -0.3846154), wk =   0.0027310
        k(  226) = (   0.3846154   0.4615385   0.4615385), wk =   0.0027310
        k(  227) = (   0.3846154   0.4615385  -0.4615385), wk =   0.0054620
        k(  228) = (   0.3846154   0.4615385  -0.3846154), wk =   0.0054620
        k(  229) = (   0.3846154  -0.4615385  -0.4615385), wk =   0.0027310
        k(  230) = (   0.4615385   0.4615385   0.4615385), wk =   0.0009103
        k(  231) = (   0.4615385   0.4615385  -0.4615385), wk =   0.0027310

     Dense  grid:   120147 G-vectors     FFT dimensions: (  81,  81,  81)

     Smooth grid:    42513 G-vectors     FFT dimensions: (  60,  60,  60)

     Dynamical RAM for                 wfc:       0.57 MB

     Dynamical RAM for     wfc (w. buffer):      38.01 MB

     Dynamical RAM for           str. fact:       0.69 MB

     Dynamical RAM for           local pot:       0.00 MB

     Dynamical RAM for          nlocal pot:       1.23 MB

     Dynamical RAM for                qrad:       6.42 MB

     Dynamical RAM for          rho,v,vnew:       4.68 MB

     Dynamical RAM for               rhoin:       1.56 MB

     Dynamical RAM for            rho*nmix:       7.33 MB

     Dynamical RAM for           G-vectors:       0.90 MB

     Dynamical RAM for          h,s,v(r/c):       0.14 MB

     Dynamical RAM for          <psi|beta>:       0.10 MB

     Dynamical RAM for      wfcinit/wfcrot:       1.28 MB

     Dynamical RAM for           addusdens:       7.33 MB

     Dynamical RAM for          addusforce:       7.51 MB

     Dynamical RAM for         addusstress:       7.45 MB

     Estimated static dynamical RAM per process >      57.71 MB

     Estimated max dynamical RAM per process >      72.56 MB

     Estimated total dynamical RAM >       3.62 GB

     Check: negative core charge=   -0.000004
     Generating pointlists ...
     new r_m :   0.1708 (alat units)  2.1631 (a.u.) for type    1
     new r_m :   0.1184 (alat units)  1.4999 (a.u.) for type    2
     new r_m :   0.1184 (alat units)  1.4999 (a.u.) for type    3

     The initial density is read from file :
     ./out/aiida.save/charge-density


     negative rho (up, down):  4.705E-01 4.163E-02
     Starting wfcs are   59 randomized atomic wfcs
     Checking if some PAW data can be deallocated... 
       PAW data deallocated on   50 nodes for type:  1
       PAW data deallocated on   38 nodes for type:  2
       PAW data deallocated on   24 nodes for type:  3

     total cpu time spent up to now is        5.2 secs

     per-process dynamical memory:    75.6 Mb

     Self-consistent Calculation

     iteration #  1     ecut=    50.00 Ry     beta= 0.40
     ParO style diagonalization

---- Real-time Memory Report at c_bands before calling an iterative solver
           110 MiB given to the printing process from OS
            73 MiB allocation reported by mallinfo(arena+hblkhd)
        488473 MiB available memory on the node where the printing process lives
------------------
     ethr =  1.00E-05,  avg # of iterations = 13.3

     Threshold (ethr) on eigenvalues was too large:
     Diagonalizing with lowered threshold

     ParO style diagonalization

---- Real-time Memory Report at c_bands before calling an iterative solver
           119 MiB given to the printing process from OS
            80 MiB allocation reported by mallinfo(arena+hblkhd)
        488000 MiB available memory on the node where the printing process lives
------------------
     ethr =  1.71E-07,  avg # of iterations =  2.4

     negative rho (up, down):  4.674E-01 4.187E-02

     total cpu time spent up to now is       68.6 secs

     total energy              =   -1667.02494396 Ry
     estimated scf accuracy    <       0.00013012 Ry

     total magnetization       =     0.00 Bohr mag/cell
     absolute magnetization    =     0.99 Bohr mag/cell

     iteration #  2     ecut=    50.00 Ry     beta= 0.40
     ParO style diagonalization

---- Real-time Memory Report at c_bands before calling an iterative solver
           132 MiB given to the printing process from OS
            83 MiB allocation reported by mallinfo(arena+hblkhd)
        487429 MiB available memory on the node where the printing process lives
------------------
     ethr =  1.53E-07,  avg # of iterations =  4.1

     negative rho (up, down):  4.704E-01 4.218E-02

     total cpu time spent up to now is       92.1 secs

     total energy              =   -1667.02159350 Ry
     estimated scf accuracy    <       0.26662103 Ry

     total magnetization       =     0.01 Bohr mag/cell
     absolute magnetization    =     1.66 Bohr mag/cell

     iteration #  3     ecut=    50.00 Ry     beta= 0.40
     ParO style diagonalization

---- Real-time Memory Report at c_bands before calling an iterative solver
           133 MiB given to the printing process from OS
            83 MiB allocation reported by mallinfo(arena+hblkhd)
        487417 MiB available memory on the node where the printing process lives
------------------
     ethr =  1.53E-07,  avg # of iterations =  3.9

     negative rho (up, down):  4.705E-01 4.190E-02

     total cpu time spent up to now is      115.0 secs

     total energy              =   -1667.02478397 Ry
     estimated scf accuracy    <       0.00055599 Ry

     total magnetization       =     0.00 Bohr mag/cell
     absolute magnetization    =     1.05 Bohr mag/cell

     iteration #  4     ecut=    50.00 Ry     beta= 0.40
     ParO style diagonalization

---- Real-time Memory Report at c_bands before calling an iterative solver
           133 MiB given to the printing process from OS
            84 MiB allocation reported by mallinfo(arena+hblkhd)
        487407 MiB available memory on the node where the printing process lives
------------------
     ethr =  1.53E-07,  avg # of iterations =  2.8

     negative rho (up, down):  4.705E-01 4.169E-02

     total cpu time spent up to now is      128.3 secs

     total energy              =   -1667.02478434 Ry
     estimated scf accuracy    <       0.00013683 Ry

     total magnetization       =     0.00 Bohr mag/cell
     absolute magnetization    =     1.02 Bohr mag/cell

     iteration #  5     ecut=    50.00 Ry     beta= 0.40
     ParO style diagonalization

---- Real-time Memory Report at c_bands before calling an iterative solver
           134 MiB given to the printing process from OS
            84 MiB allocation reported by mallinfo(arena+hblkhd)
        487396 MiB available memory on the node where the printing process lives
------------------
     ethr =  1.53E-07,  avg # of iterations =  2.8

     negative rho (up, down):  4.705E-01 4.161E-02

     total cpu time spent up to now is      141.8 secs

     total energy              =   -1667.02477632 Ry
     estimated scf accuracy    <       0.00002907 Ry

     total magnetization       =     0.00 Bohr mag/cell
     absolute magnetization    =     1.02 Bohr mag/cell

     iteration #  6     ecut=    50.00 Ry     beta= 0.40
     ParO style diagonalization

---- Real-time Memory Report at c_bands before calling an iterative solver
           134 MiB given to the printing process from OS
            84 MiB allocation reported by mallinfo(arena+hblkhd)
        487388 MiB available memory on the node where the printing process lives
------------------
     ethr =  3.42E-08,  avg # of iterations =  2.8

     negative rho (up, down):  4.705E-01 4.161E-02

     total cpu time spent up to now is      155.3 secs

     total energy              =   -1667.02477714 Ry
     estimated scf accuracy    <       0.00005312 Ry

     total magnetization       =     0.00 Bohr mag/cell
     absolute magnetization    =     1.01 Bohr mag/cell

     iteration #  7     ecut=    50.00 Ry     beta= 0.40
     ParO style diagonalization

---- Real-time Memory Report at c_bands before calling an iterative solver
           135 MiB given to the printing process from OS
            85 MiB allocation reported by mallinfo(arena+hblkhd)
        487375 MiB available memory on the node where the printing process lives
------------------
     ethr =  3.42E-08,  avg # of iterations =  2.0

     negative rho (up, down):  4.705E-01 4.161E-02

     total cpu time spent up to now is      165.1 secs

     total energy              =   -1667.02477625 Ry
     estimated scf accuracy    <       0.00005190 Ry

     total magnetization       =     0.00 Bohr mag/cell
     absolute magnetization    =     1.01 Bohr mag/cell

     iteration #  8     ecut=    50.00 Ry     beta= 0.40
     ParO style diagonalization

---- Real-time Memory Report at c_bands before calling an iterative solver
           135 MiB given to the printing process from OS
            85 MiB allocation reported by mallinfo(arena+hblkhd)
        487369 MiB available memory on the node where the printing process lives
------------------
     ethr =  3.42E-08,  avg # of iterations =  2.4

     negative rho (up, down):  4.704E-01 4.160E-02

     total cpu time spent up to now is      178.3 secs

     total energy              =   -1667.02478592 Ry
     estimated scf accuracy    <       0.00003416 Ry

     total magnetization       =     0.00 Bohr mag/cell
     absolute magnetization    =     1.01 Bohr mag/cell

     iteration #  9     ecut=    50.00 Ry     beta= 0.40
     ParO style diagonalization

---- Real-time Memory Report at c_bands before calling an iterative solver
           135 MiB given to the printing process from OS
            86 MiB allocation reported by mallinfo(arena+hblkhd)
        487360 MiB available memory on the node where the printing process lives
------------------
     ethr =  3.42E-08,  avg # of iterations =  2.8

     negative rho (up, down):  4.704E-01 4.159E-02

     total cpu time spent up to now is      191.7 secs

     total energy              =   -1667.02478677 Ry
     estimated scf accuracy    <       0.00004930 Ry

     total magnetization       =     0.00 Bohr mag/cell
     absolute magnetization    =     1.00 Bohr mag/cell

     iteration # 10     ecut=    50.00 Ry     beta= 0.40
     ParO style diagonalization

---- Real-time Memory Report at c_bands before calling an iterative solver
           136 MiB given to the printing process from OS
            86 MiB allocation reported by mallinfo(arena+hblkhd)
        487354 MiB available memory on the node where the printing process lives
------------------
     ethr =  3.42E-08,  avg # of iterations =  2.8

     negative rho (up, down):  4.704E-01 4.153E-02

     total cpu time spent up to now is      205.3 secs

     total energy              =   -1667.02480876 Ry
     estimated scf accuracy    <       0.00016583 Ry

     total magnetization       =     0.00 Bohr mag/cell
     absolute magnetization    =     1.01 Bohr mag/cell

     iteration # 11     ecut=    50.00 Ry     beta= 0.40
     ParO style diagonalization

---- Real-time Memory Report at c_bands before calling an iterative solver
           136 MiB given to the printing process from OS
            86 MiB allocation reported by mallinfo(arena+hblkhd)
        487348 MiB available memory on the node where the printing process lives
------------------
     ethr =  3.42E-08,  avg # of iterations =  2.8

     negative rho (up, down):  4.705E-01 4.161E-02

     total cpu time spent up to now is      218.8 secs

     total energy              =   -1667.02476632 Ry
     estimated scf accuracy    <       0.00015497 Ry

     total magnetization       =     0.00 Bohr mag/cell
     absolute magnetization    =     1.00 Bohr mag/cell

     iteration # 12     ecut=    50.00 Ry     beta= 0.40
     ParO style diagonalization

---- Real-time Memory Report at c_bands before calling an iterative solver
           136 MiB given to the printing process from OS
            86 MiB allocation reported by mallinfo(arena+hblkhd)
        487346 MiB available memory on the node where the printing process lives
------------------
     ethr =  3.42E-08,  avg # of iterations =  2.8

     negative rho (up, down):  4.705E-01 4.165E-02

     total cpu time spent up to now is      232.2 secs

     total energy              =   -1667.02475850 Ry
     estimated scf accuracy    <       0.00010792 Ry

     total magnetization       =     0.00 Bohr mag/cell
     absolute magnetization    =     1.02 Bohr mag/cell

     iteration # 13     ecut=    50.00 Ry     beta= 0.40
     ParO style diagonalization

---- Real-time Memory Report at c_bands before calling an iterative solver
           136 MiB given to the printing process from OS
            86 MiB allocation reported by mallinfo(arena+hblkhd)
        487342 MiB available memory on the node where the printing process lives
------------------
     ethr =  3.42E-08,  avg # of iterations =  2.9

     negative rho (up, down):  4.705E-01 4.164E-02

     total cpu time spent up to now is      246.7 secs

     total energy              =   -1667.02476337 Ry
     estimated scf accuracy    <       0.00018965 Ry

     total magnetization       =     0.00 Bohr mag/cell
     absolute magnetization    =     1.01 Bohr mag/cell

     iteration # 14     ecut=    50.00 Ry     beta= 0.40
     ParO style diagonalization

---- Real-time Memory Report at c_bands before calling an iterative solver
           136 MiB given to the printing process from OS
            86 MiB allocation reported by mallinfo(arena+hblkhd)
        487338 MiB available memory on the node where the printing process lives
------------------
     ethr =  3.42E-08,  avg # of iterations =  2.8

     negative rho (up, down):  4.705E-01 4.164E-02

     total cpu time spent up to now is      260.0 secs

     total energy              =   -1667.02476457 Ry
     estimated scf accuracy    <       0.00001901 Ry

     total magnetization       =     0.00 Bohr mag/cell
     absolute magnetization    =     1.01 Bohr mag/cell

     iteration # 15     ecut=    50.00 Ry     beta= 0.40
     ParO style diagonalization

---- Real-time Memory Report at c_bands before calling an iterative solver
           136 MiB given to the printing process from OS
            86 MiB allocation reported by mallinfo(arena+hblkhd)
        487334 MiB available memory on the node where the printing process lives
------------------
     ethr =  2.24E-08,  avg # of iterations =  2.0

     negative rho (up, down):  4.705E-01 4.164E-02

     total cpu time spent up to now is      269.9 secs

     total energy              =   -1667.02476484 Ry
     estimated scf accuracy    <       0.00001905 Ry

     total magnetization       =     0.00 Bohr mag/cell
     absolute magnetization    =     1.01 Bohr mag/cell

     iteration # 16     ecut=    50.00 Ry     beta= 0.40
     ParO style diagonalization

---- Real-time Memory Report at c_bands before calling an iterative solver
           136 MiB given to the printing process from OS
            86 MiB allocation reported by mallinfo(arena+hblkhd)
        487343 MiB available memory on the node where the printing process lives
------------------
     ethr =  2.24E-08,  avg # of iterations =  2.4

     negative rho (up, down):  4.705E-01 4.162E-02

     total cpu time spent up to now is      283.1 secs

     total energy              =   -1667.02476627 Ry
     estimated scf accuracy    <       0.00000592 Ry

     total magnetization       =     0.00 Bohr mag/cell
     absolute magnetization    =     1.01 Bohr mag/cell

     iteration # 17     ecut=    50.00 Ry     beta= 0.40
     ParO style diagonalization

---- Real-time Memory Report at c_bands before calling an iterative solver
           136 MiB given to the printing process from OS
            86 MiB allocation reported by mallinfo(arena+hblkhd)
        487340 MiB available memory on the node where the printing process lives
------------------
     ethr =  6.97E-09,  avg # of iterations =  2.9

     negative rho (up, down):  4.705E-01 4.162E-02

     total cpu time spent up to now is      297.7 secs

     total energy              =   -1667.02476814 Ry
     estimated scf accuracy    <       0.00005139 Ry

     total magnetization       =     0.00 Bohr mag/cell
     absolute magnetization    =     1.02 Bohr mag/cell

     iteration # 18     ecut=    50.00 Ry     beta= 0.40
     ParO style diagonalization

---- Real-time Memory Report at c_bands before calling an iterative solver
           136 MiB given to the printing process from OS
            86 MiB allocation reported by mallinfo(arena+hblkhd)
        487337 MiB available memory on the node where the printing process lives
------------------
     ethr =  6.97E-09,  avg # of iterations =  2.4

     negative rho (up, down):  4.705E-01 4.162E-02

     total cpu time spent up to now is      310.7 secs

     total energy              =   -1667.02476812 Ry
     estimated scf accuracy    <       0.00006972 Ry

     total magnetization       =     0.00 Bohr mag/cell
     absolute magnetization    =     1.02 Bohr mag/cell

     iteration # 19     ecut=    50.00 Ry     beta= 0.40
     ParO style diagonalization

---- Real-time Memory Report at c_bands before calling an iterative solver
           136 MiB given to the printing process from OS
            86 MiB allocation reported by mallinfo(arena+hblkhd)
        487344 MiB available memory on the node where the printing process lives
------------------
     ethr =  6.97E-09,  avg # of iterations =  2.0

     negative rho (up, down):  4.705E-01 4.162E-02

     total cpu time spent up to now is      320.8 secs

     total energy              =   -1667.02476764 Ry
     estimated scf accuracy    <       0.00006175 Ry

     total magnetization       =     0.00 Bohr mag/cell
     absolute magnetization    =     1.02 Bohr mag/cell

     iteration # 20     ecut=    50.00 Ry     beta= 0.40
     ParO style diagonalization

---- Real-time Memory Report at c_bands before calling an iterative solver
           137 MiB given to the printing process from OS
            86 MiB allocation reported by mallinfo(arena+hblkhd)
        487342 MiB available memory on the node where the printing process lives
------------------
     ethr =  6.97E-09,  avg # of iterations =  2.4

     negative rho (up, down):  4.705E-01 4.163E-02

     total cpu time spent up to now is      334.1 secs

     total energy              =   -1667.02476522 Ry
     estimated scf accuracy    <       0.00004590 Ry

     total magnetization       =     0.00 Bohr mag/cell
     absolute magnetization    =     1.02 Bohr mag/cell

     iteration # 21     ecut=    50.00 Ry     beta= 0.40
     ParO style diagonalization

---- Real-time Memory Report at c_bands before calling an iterative solver
           137 MiB given to the printing process from OS
            86 MiB allocation reported by mallinfo(arena+hblkhd)
        487346 MiB available memory on the node where the printing process lives
------------------
     ethr =  6.97E-09,  avg # of iterations =  2.8

     negative rho (up, down):  4.705E-01 4.163E-02

     total cpu time spent up to now is      347.8 secs

     total energy              =   -1667.02476546 Ry
     estimated scf accuracy    <       0.00000118 Ry

     total magnetization       =     0.00 Bohr mag/cell
     absolute magnetization    =     1.01 Bohr mag/cell

     iteration # 22     ecut=    50.00 Ry     beta= 0.40
     ParO style diagonalization

---- Real-time Memory Report at c_bands before calling an iterative solver
           137 MiB given to the printing process from OS
            86 MiB allocation reported by mallinfo(arena+hblkhd)
        487323 MiB available memory on the node where the printing process lives
------------------
     ethr =  1.39E-09,  avg # of iterations =  2.0

     negative rho (up, down):  4.705E-01 4.163E-02

     total cpu time spent up to now is      357.7 secs

     total energy              =   -1667.02476545 Ry
     estimated scf accuracy    <       0.00000119 Ry

     total magnetization       =     0.00 Bohr mag/cell
     absolute magnetization    =     1.01 Bohr mag/cell

     iteration # 23     ecut=    50.00 Ry     beta= 0.40
     ParO style diagonalization

---- Real-time Memory Report at c_bands before calling an iterative solver
           137 MiB given to the printing process from OS
            86 MiB allocation reported by mallinfo(arena+hblkhd)
        487323 MiB available memory on the node where the printing process lives
------------------
     ethr =  1.39E-09,  avg # of iterations =  2.0

     negative rho (up, down):  4.705E-01 4.162E-02

     total cpu time spent up to now is      367.8 secs

     total energy              =   -1667.02476536 Ry
     estimated scf accuracy    <       0.00000135 Ry

     total magnetization       =     0.00 Bohr mag/cell
     absolute magnetization    =     1.01 Bohr mag/cell

     iteration # 24     ecut=    50.00 Ry     beta= 0.40
     ParO style diagonalization

---- Real-time Memory Report at c_bands before calling an iterative solver
           137 MiB given to the printing process from OS
            86 MiB allocation reported by mallinfo(arena+hblkhd)
        487320 MiB available memory on the node where the printing process lives
------------------
     ethr =  1.39E-09,  avg # of iterations =  2.4

     negative rho (up, down):  4.705E-01 4.161E-02

     total cpu time spent up to now is      381.0 secs

     total energy              =   -1667.02476463 Ry
     estimated scf accuracy    <       0.00000072 Ry

     total magnetization       =     0.00 Bohr mag/cell
     absolute magnetization    =     1.01 Bohr mag/cell

     iteration # 25     ecut=    50.00 Ry     beta= 0.40
     ParO style diagonalization

---- Real-time Memory Report at c_bands before calling an iterative solver
           137 MiB given to the printing process from OS
            86 MiB allocation reported by mallinfo(arena+hblkhd)
        487319 MiB available memory on the node where the printing process lives
------------------
     ethr =  8.52E-10,  avg # of iterations =  2.4

     negative rho (up, down):  4.705E-01 4.164E-02

     total cpu time spent up to now is      394.7 secs

     total energy              =   -1667.02476566 Ry
     estimated scf accuracy    <       0.00000144 Ry

     total magnetization       =     0.00 Bohr mag/cell
     absolute magnetization    =     1.01 Bohr mag/cell

     iteration # 26     ecut=    50.00 Ry     beta= 0.40
     ParO style diagonalization

---- Real-time Memory Report at c_bands before calling an iterative solver
           137 MiB given to the printing process from OS
            86 MiB allocation reported by mallinfo(arena+hblkhd)
        487321 MiB available memory on the node where the printing process lives
------------------
     ethr =  8.52E-10,  avg # of iterations =  2.7

     negative rho (up, down):  4.705E-01 4.163E-02

     total cpu time spent up to now is      408.3 secs

     total energy              =   -1667.02476583 Ry
     estimated scf accuracy    <       0.00000219 Ry

     total magnetization       =     0.00 Bohr mag/cell
     absolute magnetization    =     1.01 Bohr mag/cell

     iteration # 27     ecut=    50.00 Ry     beta= 0.40
     ParO style diagonalization

---- Real-time Memory Report at c_bands before calling an iterative solver
           137 MiB given to the printing process from OS
            86 MiB allocation reported by mallinfo(arena+hblkhd)
        487321 MiB available memory on the node where the printing process lives
------------------
     ethr =  8.52E-10,  avg # of iterations =  2.4

     negative rho (up, down):  4.705E-01 4.163E-02

     total cpu time spent up to now is      421.4 secs

     total energy              =   -1667.02476557 Ry
     estimated scf accuracy    <       0.00000141 Ry

     total magnetization       =     0.00 Bohr mag/cell
     absolute magnetization    =     1.01 Bohr mag/cell

     iteration # 28     ecut=    50.00 Ry     beta= 0.40
     ParO style diagonalization

---- Real-time Memory Report at c_bands before calling an iterative solver
           137 MiB given to the printing process from OS
            86 MiB allocation reported by mallinfo(arena+hblkhd)
        487319 MiB available memory on the node where the printing process lives
------------------
     ethr =  8.52E-10,  avg # of iterations =  2.3

     negative rho (up, down):  4.705E-01 4.163E-02

     total cpu time spent up to now is      434.4 secs

     total energy              =   -1667.02476546 Ry
     estimated scf accuracy    <       0.00000023 Ry

     total magnetization       =     0.00 Bohr mag/cell
     absolute magnetization    =     1.01 Bohr mag/cell

     iteration # 29     ecut=    50.00 Ry     beta= 0.40
     ParO style diagonalization

---- Real-time Memory Report at c_bands before calling an iterative solver
           137 MiB given to the printing process from OS
            86 MiB allocation reported by mallinfo(arena+hblkhd)
        487318 MiB available memory on the node where the printing process lives
------------------
     ethr =  2.72E-10,  avg # of iterations =  2.4

     negative rho (up, down):  4.705E-01 4.163E-02

     total cpu time spent up to now is      447.5 secs

     total energy              =   -1667.02476525 Ry
     estimated scf accuracy    <       0.00000007 Ry

     total magnetization       =     0.00 Bohr mag/cell
     absolute magnetization    =     1.01 Bohr mag/cell

     iteration # 30     ecut=    50.00 Ry     beta= 0.40
     ParO style diagonalization

---- Real-time Memory Report at c_bands before calling an iterative solver
           137 MiB given to the printing process from OS
            86 MiB allocation reported by mallinfo(arena+hblkhd)
        487317 MiB available memory on the node where the printing process lives
------------------
     ethr =  7.74E-11,  avg # of iterations =  2.0

     negative rho (up, down):  4.705E-01 4.163E-02

     total cpu time spent up to now is      457.9 secs

     total energy              =   -1667.02476526 Ry
     estimated scf accuracy    <       0.00000006 Ry

     total magnetization       =     0.00 Bohr mag/cell
     absolute magnetization    =     1.01 Bohr mag/cell

     iteration # 31     ecut=    50.00 Ry     beta= 0.40
     ParO style diagonalization

---- Real-time Memory Report at c_bands before calling an iterative solver
           137 MiB given to the printing process from OS
            86 MiB allocation reported by mallinfo(arena+hblkhd)
        487316 MiB available memory on the node where the printing process lives
------------------
     ethr =  6.93E-11,  avg # of iterations =  2.4

     negative rho (up, down):  4.705E-01 4.163E-02

     total cpu time spent up to now is      471.0 secs

     total energy              =   -1667.02476525 Ry
     estimated scf accuracy    <       0.00000001 Ry

     total magnetization       =     0.00 Bohr mag/cell
     absolute magnetization    =     1.01 Bohr mag/cell

     iteration # 32     ecut=    50.00 Ry     beta= 0.40
     ParO style diagonalization

---- Real-time Memory Report at c_bands before calling an iterative solver
           137 MiB given to the printing process from OS
            86 MiB allocation reported by mallinfo(arena+hblkhd)
        487314 MiB available memory on the node where the printing process lives
------------------
     ethr =  1.38E-11,  avg # of iterations =  2.0

     negative rho (up, down):  4.705E-01 4.163E-02

     total cpu time spent up to now is      481.4 secs

     total energy              =   -1667.02476525 Ry
     estimated scf accuracy    <       0.00000001 Ry

     total magnetization       =     0.00 Bohr mag/cell
     absolute magnetization    =     1.01 Bohr mag/cell

     iteration # 33     ecut=    50.00 Ry     beta= 0.40
     ParO style diagonalization

---- Real-time Memory Report at c_bands before calling an iterative solver
           137 MiB given to the printing process from OS
            86 MiB allocation reported by mallinfo(arena+hblkhd)
        487314 MiB available memory on the node where the printing process lives
------------------
     ethr =  1.38E-11,  avg # of iterations =  2.3

     negative rho (up, down):  4.705E-01 4.163E-02

     total cpu time spent up to now is      494.3 secs

     total energy              =   -1667.02476516 Ry
     estimated scf accuracy    <       0.00000001 Ry

     total magnetization       =     0.00 Bohr mag/cell
     absolute magnetization    =     1.01 Bohr mag/cell

     iteration # 34     ecut=    50.00 Ry     beta= 0.40
     ParO style diagonalization

---- Real-time Memory Report at c_bands before calling an iterative solver
           137 MiB given to the printing process from OS
            86 MiB allocation reported by mallinfo(arena+hblkhd)
        487312 MiB available memory on the node where the printing process lives
------------------
     ethr =  1.38E-11,  avg # of iterations =  2.3

     negative rho (up, down):  4.705E-01 4.163E-02

     Magnetic moment per site  (integrated on atomic sphere of radius R)
     atom   1 (R=0.171)  charge=  6.7404  magn=  0.0038
     atom   2 (R=0.118)  charge=  7.7982  magn=  0.0003
     atom   3 (R=0.118)  charge=  7.7982  magn=  0.0003
     atom   4 (R=0.118)  charge=  7.7982  magn=  0.0003
     atom   5 (R=0.118)  charge=  5.3097  magn=  0.0001
     atom   6 (R=0.118)  charge=  5.3097  magn=  0.0001
     atom   7 (R=0.118)  charge=  5.3097  magn=  0.0001
     atom   8 (R=0.118)  charge=  5.3097  magn=  0.0001
     atom   9 (R=0.118)  charge=  5.3097  magn=  0.0001
     atom  10 (R=0.118)  charge=  5.3097  magn=  0.0001

     total cpu time spent up to now is      507.3 secs

     End of self-consistent calculation

 ------ SPIN UP ------------


          k = 0.0000 0.0000 0.0000 (  5309 PWs)   bands (ev):

   -42.7340 -42.7172 -42.7172 -19.1521 -19.0408 -19.0408 -18.9381 -18.8663
   -18.8663 -18.7429 -18.7429 -18.6988 -13.9335  -6.9924  -5.6064  -5.1889
    -5.1889  -4.3908  -4.3908   0.9004   0.9004   1.4497   6.0593   6.0635
     6.0635   6.0680   6.9534   6.9534   8.3018   8.3018   8.4285   9.5027
     9.5027   9.5243   9.9509   9.9509  10.3766  11.5034  11.6862  11.6862
    11.9126  12.4939  12.6232  12.6232  14.1914  14.1914  15.0296  15.0765
    15.0765  15.2193  16.2932  16.2932  16.4381  17.6204  17.6204  17.6611

     occupation numbers 
     1.0000   1.0000   1.0000   1.0000   1.0000   1.0000   1.0000   1.0000
     1.0000   1.0000   1.0000   1.0000   1.0000   1.0000   1.0000   1.0000
     1.0000   1.0000   1.0000   1.0000   1.0000   1.0000   1.0000   1.0000
     1.0000   1.0000   1.0000   1.0000   1.0000   1.0000   1.0000   1.0000
     1.0000   1.0000   1.0000   1.0000   1.0000   1.0000   1.0000   1.0000
     1.0000   1.0000   1.0002   1.0002   0.0000   0.0000   0.0000   0.0000
     0.0000   0.0000   0.0000   0.0000   0.0000   0.0000   0.0000   0.0000

          k =-0.0000-0.0521 0.1475 (  5331 PWs)   bands (ev):

   -42.7332 -42.7169 -42.7168 -19.1439 -19.0436 -19.0393 -18.9493 -18.8712
   -18.8698 -18.7458 -18.7453 -18.7019 -13.9200  -6.9427  -5.6358  -5.1963
    -5.1772  -4.4215  -4.3876   0.9046   0.9155   1.3202   6.0804   6.0965
     6.1151   6.1849   6.9775   6.9941   8.1722   8.1896   8.4084   9.3189
     9.4729   9.5229   9.9130   9.9854  10.2326  11.5892  11.6931  11.7689
    11.8837  12.6662  12.7310  12.7529  14.1373  14.1875  15.0146  15.0570
    15.2213  15.2237  16.1773  16.2428  16.4098  17.4651  17.5038  17.6909

     occupation numbers 
     1.0000   1.0000   1.0000   1.0000   1.0000   1.0000   1.0000   1.0000
     1.0000   1.0000   1.0000   1.0000   1.0000   1.0000   1.0000   1.0000
     1.0000   1.0000   1.0000   1.0000   1.0000   1.0000   1.0000   1.0000
     1.0000   1.0000   1.0000   1.0000   1.0000   1.0000   1.0000   1.0000
     1.0000   1.0000   1.0000   1.0000   1.0000   1.0000   1.0000   1.0000
     1.0000   1.0006   1.0017   1.0024   0.0001   0.0000   0.0000   0.0000
     0.0000   0.0000   0.0000   0.0000   0.0000   0.0000   0.0000   0.0000

          k =-0.0000-0.1041 0.2951 (  5320 PWs)   bands (ev):

   -42.7308 -42.7159 -42.7157 -19.1214 -19.0540 -19.0363 -18.9813 -18.8816
   -18.8785 -18.7533 -18.7513 -18.7096 -13.8821  -6.8018  -5.7098  -5.2423
    -5.1563  -4.4836  -4.3674   0.9177   0.9583   0.9809   6.1560   6.1831
     6.2342   6.4765   7.0290   7.1108   7.9475   7.9546   8.3629   8.7553
     9.2989   9.4220   9.8552  10.0508  10.1425  11.4708  11.6531  11.8047
    12.2290  12.9574  13.0667  13.2431  13.9598  14.1730  14.8980  15.0216
    15.2313  15.6058  15.9233  16.1442  16.4821  17.0372  17.3259  17.8785

     occupation numbers 
     1.0000   1.0000   1.0000   1.0000   1.0000   1.0000   1.0000   1.0000
     1.0000   1.0000   1.0000   1.0000   1.0000   1.0000   1.0000   1.0000
     1.0000   1.0000   1.0000   1.0000   1.0000   1.0000   1.0000   1.0000
     1.0000   1.0000   1.0000   1.0000   1.0000   1.0000   1.0000   1.0000
     1.0000   1.0000   1.0000   1.0000   1.0000   1.0000   1.0000   1.0000
     1.0000   1.0297   1.0652   1.0509   0.0033   0.0000   0.0000   0.0000
     0.0000   0.0000   0.0000   0.0000   0.0000   0.0000   0.0000   0.0000

          k =-0.0000-0.1562 0.4426 (  5319 PWs)   bands (ev):

   -42.7274 -42.7146 -42.7141 -19.0926 -19.0760 -19.0322 -19.0269 -18.8899
   -18.8874 -18.7636 -18.7588 -18.7192 -13.8278  -6.5917  -5.8050  -5.3539
    -5.1621  -4.5229  -4.3066   0.5422   0.9399   1.0211   6.2519   6.3114
     6.3873   6.7423   7.0452   7.2461   7.7208   7.8945   8.0412   8.3877
     9.0648   9.1932   9.5974  10.1424  10.3349  11.2911  11.5596  11.6809
    12.7612  13.2075  13.5187  13.6731  14.0284  14.1916  14.8104  14.9924
    15.2515  15.6835  15.6843  16.0716  16.5738  16.8427  17.5472  18.1444

     occupation numbers 
     1.0000   1.0000   1.0000   1.0000   1.0000   1.0000   1.0000   1.0000
     1.0000   1.0000   1.0000   1.0000   1.0000   1.0000   1.0000   1.0000
     1.0000   1.0000   1.0000   1.0000   1.0000   1.0000   1.0000   1.0000
     1.0000   1.0000   1.0000   1.0000   1.0000   1.0000   1.0000   1.0000
     1.0000   1.0000   1.0000   1.0000   1.0000   1.0000   1.0000   1.0000
     1.0027   1.0729   0.4561   0.1410   0.0010   0.0000   0.0000   0.0000
     0.0000   0.0000   0.0000   0.0000   0.0000   0.0000   0.0000   0.0000

          k =-0.0000-0.2083 0.5901 (  5314 PWs)   bands (ev):

   -42.7234 -42.7136 -42.7124 -19.1109 -19.0779 -19.0705 -19.0148 -18.8933
   -18.8927 -18.7746 -18.7652 -18.7287 -13.7692  -6.3437  -5.9045  -5.5005
    -5.2237  -4.5266  -4.1986   0.1159   0.9683   1.0903   6.3247   6.4535
     6.4986   6.8622   6.9172   7.2695   7.4770   7.6173   7.9643   8.6665
     8.8049   8.9680   9.4225  10.2412  10.4816  11.1056  11.4555  11.5453
    13.0735  13.3574  13.8387  14.0170  14.3455  14.3766  14.8072  14.9532
    15.2864  15.5335  15.6649  16.0041  16.2141  16.9393  18.3798  18.3951

     occupation numbers 
     1.0000   1.0000   1.0000   1.0000   1.0000   1.0000   1.0000   1.0000
     1.0000   1.0000   1.0000   1.0000   1.0000   1.0000   1.0000   1.0000
     1.0000   1.0000   1.0000   1.0000   1.0000   1.0000   1.0000   1.0000
     1.0000   1.0000   1.0000   1.0000   1.0000   1.0000   1.0000   1.0000
     1.0000   1.0000   1.0000   1.0000   1.0000   1.0000   1.0000   1.0000
     1.0674   0.8786   0.0208   0.0012   0.0000   0.0000   0.0000   0.0000
     0.0000   0.0000   0.0000   0.0000   0.0000   0.0000   0.0000   0.0000

[...]
     9.4387   9.5815   9.6216  10.2160  10.3797  10.8007  10.9431  11.8801
    13.2389  13.3379  14.3520  14.4610  14.5148  14.6631  14.6994  15.0052
    15.0544  15.8410  15.9215  16.2383  17.0090  17.4705  17.7375  18.3110

     occupation numbers 
     1.0000   1.0000   1.0000   1.0000   1.0000   1.0000   1.0000   1.0000
     1.0000   1.0000   1.0000   1.0000   1.0000   1.0000   1.0000   1.0000
     1.0000   1.0000   1.0000   1.0000   1.0000   1.0000   1.0000   1.0000
     1.0000   1.0000   1.0000   1.0000   1.0000   1.0000   1.0000   1.0000
     1.0000   1.0000   1.0000   1.0000   1.0000   1.0000   1.0000   1.0000
     1.0542   0.9188   0.0000   0.0000   0.0000   0.0000   0.0000   0.0000
     0.0000   0.0000   0.0000   0.0000   0.0000   0.0000   0.0000   0.0000

          k =-0.0451 0.5468 0.8852 (  5297 PWs)   bands (ev):

   -42.7167 -42.7160 -42.7067 -19.1888 -19.1852 -19.0307 -18.9357 -18.9264
   -18.8671 -18.8132 -18.7392 -18.7355 -13.7300  -6.1911  -6.1724  -5.3562
    -5.3172  -4.7617  -3.6408  -0.2707   1.0506   1.0683   5.9015   5.9281
     6.1627   6.6334   6.7011   6.9315   7.2909   7.7445   7.8912   9.3706
     9.5366   9.6424   9.7811  10.1437  10.2058  10.8759  10.9412  11.9838
    13.2383  13.2853  14.4479  14.5442  14.5768  14.6410  14.7364  15.0218
    15.0595  16.0092  16.0620  16.3720  16.7341  17.3220  17.8460  18.3104

     occupation numbers 
     1.0000   1.0000   1.0000   1.0000   1.0000   1.0000   1.0000   1.0000
     1.0000   1.0000   1.0000   1.0000   1.0000   1.0000   1.0000   1.0000
     1.0000   1.0000   1.0000   1.0000   1.0000   1.0000   1.0000   1.0000
     1.0000   1.0000   1.0000   1.0000   1.0000   1.0000   1.0000   1.0000
     1.0000   1.0000   1.0000   1.0000   1.0000   1.0000   1.0000   1.0000
     1.0546   1.0057   0.0000   0.0000   0.0000   0.0000   0.0000   0.0000
     0.0000   0.0000   0.0000   0.0000   0.0000   0.0000   0.0000   0.0000

          k = 0.4961 0.2864-1.0327 (  5296 PWs)   bands (ev):

   -42.7165 -42.7163 -42.7066 -19.1912 -19.1863 -19.0290 -18.9334 -18.9282
   -18.8661 -18.8141 -18.7369 -18.7364 -13.7304  -6.2022  -6.1796  -5.3492
    -5.3047  -4.7692  -3.6238  -0.2696   1.0481   1.0669   5.8743   5.9085
     6.1430   6.5956   6.6877   6.9231   7.2974   7.8026   7.9081   9.3730
     9.5484   9.6961   9.7554  10.1545  10.2222  10.8468  10.9405  12.0287
    13.2263  13.2824  14.4517  14.5342  14.5784  14.6202  14.7263  15.0196
    15.0555  16.0386  16.0594  16.4391  16.8845  17.2897  17.8141  18.3249

     occupation numbers 
     1.0000   1.0000   1.0000   1.0000   1.0000   1.0000   1.0000   1.0000
     1.0000   1.0000   1.0000   1.0000   1.0000   1.0000   1.0000   1.0000
     1.0000   1.0000   1.0000   1.0000   1.0000   1.0000   1.0000   1.0000
     1.0000   1.0000   1.0000   1.0000   1.0000   1.0000   1.0000   1.0000
     1.0000   1.0000   1.0000   1.0000   1.0000   1.0000   1.0000   1.0000
     1.0630   1.0096   0.0000   0.0000   0.0000   0.0000   0.0000   0.0000
     0.0000   0.0000   0.0000   0.0000   0.0000   0.0000   0.0000   0.0000

          k =-0.0000 0.0000 2.6556 (  5285 PWs)   bands (ev):

   -42.7175 -42.7175 -42.7075 -19.1706 -19.1706 -19.0175 -18.9388 -18.9388
   -18.8648 -18.8150 -18.7348 -18.7348 -13.7572  -6.1957  -6.1957  -5.3178
    -5.3178  -4.7691  -3.6829  -0.0888   1.0193   1.0193   6.0138   6.0138
     6.2535   6.6744   6.6744   6.8180   7.4615   7.8716   7.8716   9.3607
     9.4475   9.4475   9.5739  10.2959  10.2959  10.8628  10.8628  11.9152
    13.2861  13.2861  14.3928  14.4949  14.4949  14.6341  14.7103  15.0092
    15.0092  15.8879  15.8879  16.2762  17.2816  17.5244  17.5244  18.2682

     occupation numbers 
     1.0000   1.0000   1.0000   1.0000   1.0000   1.0000   1.0000   1.0000
     1.0000   1.0000   1.0000   1.0000   1.0000   1.0000   1.0000   1.0000
     1.0000   1.0000   1.0000   1.0000   1.0000   1.0000   1.0000   1.0000
     1.0000   1.0000   1.0000   1.0000   1.0000   1.0000   1.0000   1.0000
     1.0000   1.0000   1.0000   1.0000   1.0000   1.0000   1.0000   1.0000
     1.0048   1.0048   0.0000   0.0000   0.0000   0.0000   0.0000   0.0000
     0.0000   0.0000   0.0000   0.0000   0.0000   0.0000   0.0000   0.0000

          k =-0.0000 0.6249 0.8852 (  5308 PWs)   bands (ev):

   -42.7166 -42.7164 -42.7065 -19.1910 -19.1900 -19.0271 -18.9325 -18.9291
   -18.8650 -18.8149 -18.7363 -18.7352 -13.7308  -6.2029  -6.1956  -5.3246
    -5.3097  -4.7782  -3.6079  -0.2685   1.0556   1.0562   5.8706   5.8782
     6.1181   6.6064   6.6168   6.9159   7.3031   7.8869   7.9060   9.4057
     9.6254   9.6532   9.7231  10.1856  10.2007  10.8765  10.8922  12.0718
    13.2403  13.2571  14.4611  14.5592  14.5673  14.6084  14.6923  15.0240
    15.0384  16.0520  16.0710  16.4796  17.1289  17.3493  17.5837  18.3247

     occupation numbers 
     1.0000   1.0000   1.0000   1.0000   1.0000   1.0000   1.0000   1.0000
     1.0000   1.0000   1.0000   1.0000   1.0000   1.0000   1.0000   1.0000
     1.0000   1.0000   1.0000   1.0000   1.0000   1.0000   1.0000   1.0000
     1.0000   1.0000   1.0000   1.0000   1.0000   1.0000   1.0000   1.0000
     1.0000   1.0000   1.0000   1.0000   1.0000   1.0000   1.0000   1.0000
     1.0531   1.0383   0.0000   0.0000   0.0000   0.0000   0.0000   0.0000
     0.0000   0.0000   0.0000   0.0000   0.0000   0.0000   0.0000   0.0000

     the Fermi energy is    13.5402 ev

!    total energy              =   -1667.02476413 Ry
     total all-electron energy =    -40072.630930 Ry
     estimated scf accuracy    <          2.9E-10 Ry
     smearing contrib. (-TS)   =       0.00105774 Ry
     internal energy E=F+TS    =   -1667.02582187 Ry

     The total energy is F=E-TS. E is the sum of the following terms:
     one-electron contribution =    -163.26112317 Ry
     hartree contribution      =     137.49572986 Ry
     xc contribution           =    -150.95462794 Ry
     ewald contribution        =    -453.66835414 Ry
     one-center paw contrib.   =   -1036.63744647 Ry
      -> PAW hartree energy AE =      31.09047025 Ry
      -> PAW hartree energy PS =     -31.62232096 Ry
      -> PAW xc energy AE      =    -388.13768089 Ry
      -> PAW xc energy PS      =      19.94388993 Ry
      -> total E_H with PAW    =     136.96387915 Ry
      -> total E_XC with PAW   =    -519.14841890 Ry

     total magnetization       =     0.00 Bohr mag/cell
     absolute magnetization    =     1.01 Bohr mag/cell

     convergence has been achieved in  34 iterations

     negative rho (up, down):  4.705E-01 4.163E-02

     Forces acting on atoms (cartesian axes, Ry/au):

     atom    1 type  1   force =     0.00000000   -0.00000000   -0.08625352
     atom    2 type  2   force =     0.00000000    0.01107886   -0.02116373
     atom    3 type  2   force =     0.00959458   -0.00553943   -0.02116373
     atom    4 type  2   force =    -0.00959458   -0.00553943   -0.02116373
     atom    5 type  3   force =     0.09264782   -0.10113513    0.02495745
     atom    6 type  3   force =    -0.09264782   -0.10113513    0.02495745
     atom    7 type  3   force =    -0.04126168    0.13080293    0.02495745
     atom    8 type  3   force =     0.04126168    0.13080293    0.02495745
     atom    9 type  3   force =     0.13390950   -0.02966780    0.02495745
     atom   10 type  3   force =    -0.13390950   -0.02966780    0.02495745
     The non-local contrib.  to forces
     atom    1 type  1   force =    -0.00000000    0.00000000    1.46601414
     atom    2 type  2   force =    -0.00000000    0.00610836    0.01177917
     atom    3 type  2   force =     0.00529000   -0.00305418    0.01177917
     atom    4 type  2   force =    -0.00529000   -0.00305418    0.01177917
     atom    5 type  3   force =     0.11563154   -0.45747572   -0.09869259
     atom    6 type  3   force =    -0.11563154   -0.45747572   -0.09869259
     atom    7 type  3   force =    -0.33836983    0.32887771   -0.09869259
     atom    8 type  3   force =     0.33836983    0.32887771   -0.09869259
     atom    9 type  3   force =     0.45400136    0.12859801   -0.09869259
     atom   10 type  3   force =    -0.45400136    0.12859801   -0.09869259
     The ionic contribution  to forces
     atom    1 type  1   force =     0.00000000   -0.00000000    0.00783553
     atom    2 type  2   force =    -0.00000000   -3.17148863   -2.27530604
     atom    3 type  2   force =    -2.74658972    1.58574431   -2.27530604
     atom    4 type  2   force =     2.74658972    1.58574431   -2.27530604
     atom    5 type  3   force =     4.50801274   -4.52567539    1.13634710
     atom    6 type  3   force =    -4.50801274   -4.52567539    1.13634710
     atom    7 type  3   force =    -1.66534348    6.16689125    1.13634710
     atom    8 type  3   force =     1.66534348    6.16689125    1.13634710
     atom    9 type  3   force =     6.17335623   -1.64121586    1.13634710
     atom   10 type  3   force =    -6.17335623   -1.64121586    1.13634710
     The local contribution  to forces
     atom    1 type  1   force =     0.00000000   -0.00000000   -1.31985155
     atom    2 type  2   force =    -0.00000000    3.18164704    2.24110125
     atom    3 type  2   force =     2.75538716   -1.59082352    2.24110125
     atom    4 type  2   force =    -2.75538716   -1.59082352    2.24110125
     atom    5 type  3   force =    -4.52838178    4.87692705   -1.02035806
     atom    6 type  3   force =     4.52838178    4.87692705   -1.02035806
     atom    7 type  3   force =     1.95935183   -6.36015718   -1.02035806
     atom    8 type  3   force =    -1.95935183   -6.36015718   -1.02035806
     atom    9 type  3   force =    -6.48773361    1.48323014   -1.02035806
     atom   10 type  3   force =     6.48773361    1.48323014   -1.02035806
     The core correction contribution to forces
     atom    1 type  1   force =     0.00000000   -0.00000000   -0.24769814
     atom    2 type  2   force =    -0.00000000   -0.00518782   -0.00618227
     atom    3 type  2   force =    -0.00449278    0.00259391   -0.00618227
     atom    4 type  2   force =     0.00449278    0.00259391   -0.00618227
     atom    5 type  3   force =    -0.00261478    0.00508905    0.00021675
     atom    6 type  3   force =     0.00261478    0.00508905    0.00021675
     atom    7 type  3   force =     0.00309986   -0.00480899    0.00021675
     atom    8 type  3   force =    -0.00309986   -0.00480899    0.00021675
     atom    9 type  3   force =    -0.00571464   -0.00028006    0.00021675
     atom   10 type  3   force =     0.00571464   -0.00028006    0.00021675
     The Hubbard contrib.    to forces
     atom    1 type  1   force =     0.00000000    0.00000000    0.00000000
     atom    2 type  2   force =     0.00000000    0.00000000    0.00000000
     atom    3 type  2   force =     0.00000000    0.00000000    0.00000000
     atom    4 type  2   force =     0.00000000    0.00000000    0.00000000
     atom    5 type  3   force =     0.00000000    0.00000000    0.00000000
     atom    6 type  3   force =     0.00000000    0.00000000    0.00000000
     atom    7 type  3   force =     0.00000000    0.00000000    0.00000000
     atom    8 type  3   force =     0.00000000    0.00000000    0.00000000
     atom    9 type  3   force =     0.00000000    0.00000000    0.00000000
     atom   10 type  3   force =     0.00000000    0.00000000    0.00000000
     The SCF correction term to forces
     atom    1 type  1   force =    -0.00000000   -0.00000000    0.00000230
     atom    2 type  2   force =     0.00000000   -0.00000009   -0.00000004
     atom    3 type  2   force =    -0.00000008    0.00000005   -0.00000004
     atom    4 type  2   force =     0.00000008    0.00000005   -0.00000004
     atom    5 type  3   force =     0.00000010   -0.00000012    0.00000005
     atom    6 type  3   force =    -0.00000010   -0.00000012    0.00000005
     atom    7 type  3   force =    -0.00000005    0.00000015    0.00000005
     atom    8 type  3   force =     0.00000005    0.00000015    0.00000005
     atom    9 type  3   force =     0.00000016   -0.00000003    0.00000005
     atom   10 type  3   force =    -0.00000016   -0.00000003    0.00000005

     Total force =     0.354627     Total SCF correction =     0.000002


     Computing stress (Cartesian axis) and pressure


     negative rho (up, down):  4.705E-01 4.163E-02
          total   stress  (Ry/bohr**3)                   (kbar)     P=       41.94
   0.00054537   0.00000000   0.00000000           80.23        0.00        0.00
  -0.00000000   0.00054537  -0.00000000           -0.00       80.23       -0.00
   0.00000000  -0.00000000  -0.00023541            0.00       -0.00      -34.63

     kinetic stress (kbar)  27476.97      0.00      0.00
                                0.00  27476.97     -0.00
                                0.00     -0.00  26960.10

     local   stress (kbar)  -9277.35      0.00      0.00
                                0.00  -9277.35     -0.00
                                0.00     -0.00 -19646.13

     nonloc. stress (kbar)   8781.36     -0.00     -0.00
                                0.00   8781.36     -0.00
                               -0.00     -0.00   8917.52

     hartree stress (kbar)   5804.02     -0.00      0.00
                               -0.00   5804.02      0.00
                                0.00      0.00  11118.49

     exc-cor stress (kbar)   4164.86     -0.00      0.00
                               -0.00   4164.86      0.00
                                0.00      0.00   4152.91

     corecor stress (kbar) -10105.43      0.00      0.00
                                0.00 -10105.43     -0.00
                                0.00     -0.00 -10079.57

     ewald   stress (kbar) -26764.19     -0.00     -0.00
                               -0.00 -26764.19     -0.00
                               -0.00     -0.00 -21457.96

     hubbard stress (kbar)      0.00      0.00      0.00
                                0.00      0.00      0.00
                                0.00      0.00      0.00

     DFT-D   stress (kbar)      0.00      0.00      0.00
                                0.00      0.00      0.00
                                0.00      0.00      0.00

     XDM     stress (kbar)      0.00      0.00      0.00
                                0.00      0.00      0.00
                                0.00      0.00      0.00

     dft-nl  stress (kbar)      0.00      0.00      0.00
                                0.00      0.00      0.00
                                0.00      0.00      0.00

     TS-vdW  stress (kbar)      0.00      0.00      0.00
                                0.00      0.00      0.00
                                0.00      0.00      0.00

     MDB     stress (kbar)      0.00      0.00      0.00
                                0.00      0.00      0.00
                                0.00      0.00      0.00

     3D-RISM stress (kbar)      0.00      0.00      0.00
                                0.00      0.00      0.00
                                0.00      0.00      0.00


     Writing all to output data dir ./out/aiida.save/ :
     XML data file, charge density, pseudopotentials, collected wavefunctions

     init_run     :      4.23s CPU      4.64s WALL (       1 calls)
     electrons    :    467.93s CPU    502.23s WALL (       1 calls)
     forces       :      0.70s CPU      0.73s WALL (       1 calls)
     stress       :      7.33s CPU      7.36s WALL (       1 calls)

     Called by init_run:
     wfcinit      :      3.07s CPU      3.35s WALL (       1 calls)
     wfcinit:atom :      0.03s CPU      0.03s WALL (      66 calls)
     wfcinit:wfcr :      2.87s CPU      3.13s WALL (      66 calls)
     potinit      :      0.64s CPU      0.76s WALL (       1 calls)
     hinit0       :      0.26s CPU      0.27s WALL (       1 calls)

     Called by electrons:
     c_bands      :    412.88s CPU    441.87s WALL (      35 calls)
     sum_band     :     47.12s CPU     51.28s WALL (      35 calls)
     v_of_rho     :      3.02s CPU      3.29s WALL (      35 calls)
     v_h          :      0.11s CPU      0.12s WALL (      35 calls)
     v_xc         :      3.08s CPU      3.35s WALL (      37 calls)
     newd         :      0.74s CPU      0.81s WALL (      35 calls)
     PAW_pot      :      3.53s CPU      4.24s WALL (      35 calls)
     mix_rho      :      0.30s CPU      0.31s WALL (      35 calls)

     Called by c_bands:
     init_us_2    :      3.55s CPU      3.72s WALL (    4818 calls)
     init_us_2:cp :      3.54s CPU      3.70s WALL (    4818 calls)
     paro_k       :    389.19s CPU    416.64s WALL (    2310 calls)

     Called by sum_band:
     sum_band:wei :      0.19s CPU      0.20s WALL (      35 calls)
     sum_band:loo :     43.50s CPU     47.59s WALL (      35 calls)
     sum_band:buf :      0.38s CPU      0.40s WALL (    2310 calls)
     sum_band:ini :      0.90s CPU      0.93s WALL (    2310 calls)
     sum_band:cal :      3.44s CPU      3.51s WALL (    2310 calls)
     sum_band:bec :      0.10s CPU      0.11s WALL (    2310 calls)
     addusdens    :      0.98s CPU      0.99s WALL (      35 calls)
                                        0.00s GPU  (      35 calls)
     addusd:skk   :      0.00s CPU      0.00s WALL (     105 calls)
                                        0.00s GPU  (     105 calls)

     Called by paro_*:
     paro:init    :     85.70s CPU     93.55s WALL (    2310 calls)
     paro:pack    :      1.55s CPU      1.57s WALL (    6898 calls)
     paro:mp_bar  :      0.01s CPU      0.01s WALL (    6898 calls)
     paro:mp_sum  :      1.57s CPU      1.64s WALL (    6898 calls)
     pcg          :    214.73s CPU    232.98s WALL (    6898 calls)
     pcg:hs_1psi  :    185.66s CPU    202.77s WALL (   17969 calls)
     pcg:ortho    :     15.92s CPU     16.34s WALL (   24867 calls)
     pcg:move1    :      0.87s CPU      0.92s WALL (   17969 calls)
     pcg:move2    :      0.17s CPU      0.18s WALL (   14978 calls)
     rotHSw       :     85.05s CPU     86.28s WALL (    9208 calls)
     rotHSw:hc    :     22.91s CPU     23.59s WALL (    9208 calls)
     rotHSw:diag  :     30.30s CPU     30.41s WALL (    9208 calls)
     rotHSw:evc   :     31.78s CPU     32.22s WALL (    9208 calls)
     rotHSw:hc:s1 :      1.31s CPU      1.51s WALL (    9208 calls)
     rotHSw:hc:s2 :      0.06s CPU      0.07s WALL (    9208 calls)
     rotHSw:hc:s3 :      1.42s CPU      1.50s WALL (    9208 calls)
     rotHSw:hc:s4 :      0.04s CPU      0.05s WALL (    9208 calls)
     rotHSw:ev:s5 :      0.02s CPU      0.02s WALL (    9208 calls)
     rotHSw:ev:s6 :      0.02s CPU      0.02s WALL (    9208 calls)
     rotHSw:ev:s7 :      0.02s CPU      0.02s WALL (    9208 calls)
     h_psi        :    262.39s CPU    287.33s WALL (   20345 calls)
     s_psi        :     10.22s CPU     10.42s WALL (   20345 calls)
     g_psi        :      1.28s CPU      1.41s WALL (  425926 calls)

     Called by h_psi:
     h_psi:calbec :     17.22s CPU     18.00s WALL (   20345 calls)
     vloc_psi     :    232.91s CPU    256.62s WALL (   20345 calls)
     add_vuspsi   :     11.05s CPU     11.42s WALL (   20345 calls)

     General routines
     calbec       :     21.21s CPU     22.07s WALL (   22985 calls)
     fft          :      1.34s CPU      1.51s WALL (     915 calls)
     ffts         :      0.53s CPU      0.53s WALL (     140 calls)
     fftw         :    226.91s CPU    251.71s WALL (  915470 calls)
     interpolate  :      0.59s CPU      0.60s WALL (      70 calls)

     Parallel routines

     PAW routines
     PAW_pot      :      3.53s CPU      4.24s WALL (      35 calls)
     PAW_symme    :      0.01s CPU      0.01s WALL (      69 calls)

     PWSCF        :   8m 0.87s CPU   8m38.26s WALL


   This run was terminated on:  23:54: 9  19Dec2023            

=------------------------------------------------------------------------------=
   JOB DONE.
=------------------------------------------------------------------------------=
