
     Program PWSCF v.7.2 starts on 23Oct2023 at 22:12:57 

     This program is part of the open-source Quantum ESPRESSO suite
     for quantum simulation of materials; please cite
         "P. Giannozzi et al., J. Phys.:Condens. Matter 21 395502 (2009);
         "P. Giannozzi et al., J. Phys.:Condens. Matter 29 465901 (2017);
         "P. Giannozzi et al., J. Chem. Phys. 152 154105 (2020);
          URL http://www.quantum-espresso.org", 
     in publications or presentations arising from this work. More details at
     http://www.quantum-espresso.org/quote

     Parallel version (MPI & OpenMP), running on      12 processor cores
     Number of MPI processes:                 1
     Threads/MPI process:                    12

     MPI processes distributed on     1 nodes
     41919 MiB available memory on the printing compute node when the environment starts
 
     Reading input from aiida.in

     Current dimensions of program PWSCF are:
     Max number of different atomic species (ntypx) = 10
     Max number of k-points (npk) =  40000
     Max angular momentum in pseudopotentials (lmaxx) =  4
     file Ba.pbesol-spn-kjpaw_psl.1.0.0.UPF: wavefunction(s)  5S 6S renormalized
     Message from routine setup:
     using ibrav=0 with symmetry is DISCOURAGED, use correct ibrav instead
 
     Subspace diagonalization in iterative solution of the eigenvalue problem:
     a serial algorithm will be used

 
     G-vector sticks info
     --------------------
     sticks:   dense  smooth     PW     G-vecs:    dense   smooth      PW
     Sum        3551    1773    499               246407    87181   13069
 
     Using Slab Decomposition
 


     bravais-lattice index     =            0
     lattice parameter (alat)  =      15.2501  a.u.
     unit-cell volume          =    2548.8365 (a.u.)^3
     number of atoms/cell      =           12
     number of atomic types    =            3
     number of electrons       =        96.00
     number of Kohn-Sham states=           58
     kinetic-energy cutoff     =      40.0000  Ry
     charge density cutoff     =     320.0000  Ry
     scf convergence threshold =      2.4E-09
     mixing beta               =       0.2000
     number of iterations used =            8  plain     mixing
     Exchange-correlation= SLA  PW   PSX  PSC
                           (   1   4  10   8   0   0   0)

     GPU acceleration is ACTIVE.


     GPU used by master process:

        Device Number: 0
        Device name: Tesla P100-PCIE-16GB
        Compute capability : 60
        Ratio of single to double precision performance  : 2
        Memory Clock Rate (KHz): 715000
        Memory Bus Width (bits): 4096
        Peak Memory Bandwidth (GB/s): 732.16

     celldm(1)=  15.250090  celldm(2)=   0.000000  celldm(3)=   0.000000
     celldm(4)=   0.000000  celldm(5)=   0.000000  celldm(6)=   0.000000

     crystal axes: (cart. coord. in units of alat)
               a(1) = (   1.000000   0.000000   0.000000 )  
               a(2) = (   0.000000   0.599752   0.000000 )  
               a(3) = (   0.000000   0.000000   1.198265 )  

     reciprocal axes: (cart. coord. in units 2 pi/alat)
               b(1) = (  1.000000  0.000000  0.000000 )  
               b(2) = (  0.000000  1.667355  0.000000 )  
               b(3) = (  0.000000  0.000000  0.834540 )  


     PseudoPot. # 1 for Ba read from file:
     ./pseudo/Ba.pbesol-spn-kjpaw_psl.1.0.0.UPF
     MD5 check sum: f28c4a63d325c1a0d00fd3a4f19b8d73
     Pseudo is Projector augmented-wave + core cor, Zval = 10.0
     Generated using "atomic" code by A. Dal Corso  v.6.0 svn rev. 13079
     Shape of augmentation charge: PSQ
     Using radial grid of 1251 points,  7 beta functions with: 
                l(1) =   0
                l(2) =   0
                l(3) =   0
                l(4) =   1
                l(5) =   1
                l(6) =   2
                l(7) =   2
     Q(r) pseudized with 0 coefficients 


     PseudoPot. # 2 for Br read from file:
     ./pseudo/br_pbesol_v1.4.uspp.F.UPF
     MD5 check sum: 7bf6084e715f6bfd1944787c04c43e72
     Pseudo is Ultrasoft + core correction, Zval =  7.0
     Generated by new atomic code, or converted to UPF format
     Using radial grid of  879 points,  6 beta functions with: 
                l(1) =   0
                l(2) =   0
                l(3) =   1
                l(4) =   1
                l(5) =   2
                l(6) =   2
     Q(r) pseudized with  8 coefficients,  rinner =    1.200   1.200   1.200
                                                       1.200   1.200

     PseudoPot. # 3 for Cl read from file:
     ./pseudo/cl_pbesol_v1.4.uspp.F.UPF
     MD5 check sum: ed6bbcf06f19043c0df9f6394706ff8f
     Pseudo is Ultrasoft + core correction, Zval =  7.0
     Generated by new atomic code, or converted to UPF format
     Using radial grid of  909 points,  6 beta functions with: 
                l(1) =   0
                l(2) =   0
                l(3) =   1
                l(4) =   1
                l(5) =   2
                l(6) =   2
     Q(r) pseudized with  8 coefficients,  rinner =    1.300   1.300   1.300
                                                       1.300   1.300

     atomic species   valence    mass     pseudopotential
        Ba            10.00   137.32700     Ba( 1.00)
        Br             7.00    79.90400     Br( 1.00)
        Cl             7.00    35.45300     Cl( 1.00)

     Starting magnetic structure 
     atomic species   magnetization
        Ba           0.100
        Br           0.100
        Cl           0.100

      8 Sym. Ops., with inversion, found ( 6 have fractional translation)


                                    s                        frac. trans.

      isym =  1     identity                                     

 cryst.   s( 1) = (     1          0          0      )
                  (     0          1          0      )
                  (     0          0          1      )

 cart.    s( 1) = (  1.0000000  0.0000000  0.0000000 )
                  (  0.0000000  1.0000000  0.0000000 )
                  (  0.0000000  0.0000000  1.0000000 )


      isym =  2     180 deg rotation - cart. axis [0,0,1]        

 cryst.   s( 2) = (    -1          0          0      )    f =(  0.5000000 )
                  (     0         -1          0      )       (  0.0000000 )
                  (     0          0          1      )       (  0.5000000 )

 cart.    s( 2) = ( -1.0000000  0.0000000  0.0000000 )    f =(  0.5000000 )
                  (  0.0000000 -1.0000000  0.0000000 )       (  0.0000000 )
                  (  0.0000000  0.0000000  1.0000000 )       (  0.5991326 )


      isym =  3     180 deg rotation - cart. axis [0,1,0]        

 cryst.   s( 3) = (    -1          0          0      )    f =(  0.0000000 )
                  (     0          1          0      )       ( -0.5000000 )
                  (     0          0         -1      )       (  0.0000000 )

 cart.    s( 3) = ( -1.0000000  0.0000000  0.0000000 )    f =(  0.0000000 )
                  (  0.0000000  1.0000000  0.0000000 )       ( -0.2998761 )
                  (  0.0000000  0.0000000 -1.0000000 )       (  0.0000000 )


      isym =  4     180 deg rotation - cart. axis [1,0,0]        

 cryst.   s( 4) = (     1          0          0      )    f =(  0.5000000 )
                  (     0         -1          0      )       (  0.5000000 )
                  (     0          0         -1      )       (  0.5000000 )

 cart.    s( 4) = (  1.0000000  0.0000000  0.0000000 )    f =(  0.5000000 )
                  (  0.0000000 -1.0000000  0.0000000 )       (  0.2998761 )
                  (  0.0000000  0.0000000 -1.0000000 )       (  0.5991326 )


      isym =  5     inversion                                    

 cryst.   s( 5) = (    -1          0          0      )
                  (     0         -1          0      )
                  (     0          0         -1      )

 cart.    s( 5) = ( -1.0000000  0.0000000  0.0000000 )
                  (  0.0000000 -1.0000000  0.0000000 )
                  (  0.0000000  0.0000000 -1.0000000 )


      isym =  6     inv. 180 deg rotation - cart. axis [0,0,1]   

 cryst.   s( 6) = (     1          0          0      )    f =(  0.5000000 )
                  (     0          1          0      )       (  0.0000000 )
                  (     0          0         -1      )       (  0.5000000 )

 cart.    s( 6) = (  1.0000000  0.0000000  0.0000000 )    f =(  0.5000000 )
                  (  0.0000000  1.0000000  0.0000000 )       (  0.0000000 )
                  (  0.0000000  0.0000000 -1.0000000 )       (  0.5991326 )


      isym =  7     inv. 180 deg rotation - cart. axis [0,1,0]   

 cryst.   s( 7) = (     1          0          0      )    f =(  0.0000000 )
                  (     0         -1          0      )       (  0.5000000 )
                  (     0          0          1      )       (  0.0000000 )

 cart.    s( 7) = (  1.0000000  0.0000000  0.0000000 )    f =(  0.0000000 )
                  (  0.0000000 -1.0000000  0.0000000 )       (  0.2998761 )
                  (  0.0000000  0.0000000  1.0000000 )       (  0.0000000 )


      isym =  8     inv. 180 deg rotation - cart. axis [1,0,0]   

 cryst.   s( 8) = (    -1          0          0      )    f =(  0.5000000 )
                  (     0          1          0      )       ( -0.5000000 )
                  (     0          0          1      )       (  0.5000000 )

 cart.    s( 8) = ( -1.0000000  0.0000000  0.0000000 )    f =(  0.5000000 )
                  (  0.0000000  1.0000000  0.0000000 )       ( -0.2998761 )
                  (  0.0000000  0.0000000  1.0000000 )       (  0.5991326 )


   Cartesian axes

     site n.     atom                  positions (alat units)
         1           Ba  tau(   1) = (   0.8603000   0.4498141   0.1585305  )
         2           Ba  tau(   2) = (   0.3603000   0.4498141   0.4406021  )
         3           Ba  tau(   3) = (   0.1397000   0.1499380   1.0397347  )
         4           Ba  tau(   4) = (   0.6397000   0.1499380   0.7576631  )
         5           Br  tau(   5) = (   0.9806000   0.4498141   0.8300383  )
         6           Br  tau(   6) = (   0.4806000   0.4498141   0.9673595  )
         7           Br  tau(   7) = (   0.0194000   0.1499380   0.3682269  )
         8           Br  tau(   8) = (   0.5194000   0.1499380   0.2309057  )
         9           Cl  tau(   9) = (   0.6786000   0.4498141   0.5408969  )
        10           Cl  tau(  10) = (   0.1786000   0.4498141   0.0582357  )
        11           Cl  tau(  11) = (   0.3214000   0.1499380   0.6573683  )
        12           Cl  tau(  12) = (   0.8214000   0.1499380   1.1400295  )

   Crystallographic axes

     site n.     atom                  positions (cryst. coord.)
         1           Ba  tau(   1) = (  0.8603000  0.7500000  0.1323000  )
         2           Ba  tau(   2) = (  0.3603000  0.7500000  0.3677000  )
         3           Ba  tau(   3) = (  0.1397000  0.2500000  0.8677000  )
         4           Ba  tau(   4) = (  0.6397000  0.2500000  0.6323000  )
         5           Br  tau(   5) = (  0.9806000  0.7500000  0.6927000  )
         6           Br  tau(   6) = (  0.4806000  0.7500000  0.8073000  )
         7           Br  tau(   7) = (  0.0194000  0.2500000  0.3073000  )
         8           Br  tau(   8) = (  0.5194000  0.2500000  0.1927000  )
         9           Cl  tau(   9) = (  0.6786000  0.7500000  0.4514000  )
        10           Cl  tau(  10) = (  0.1786000  0.7500000  0.0486000  )
        11           Cl  tau(  11) = (  0.3214000  0.2500000  0.5486000  )
        12           Cl  tau(  12) = (  0.8214000  0.2500000  0.9514000  )

     number of k points=    60  Marzari-Vanderbilt smearing, width (Ry)=  0.0100
                       cart. coord. in units 2pi/alat
        k(    1) = (   0.0000000   0.0000000   0.0000000), wk =   0.0037037
        k(    2) = (   0.0000000   0.0000000   0.1669080), wk =   0.0074074
        k(    3) = (   0.0000000   0.0000000   0.3338159), wk =   0.0074074
        k(    4) = (   0.0000000   0.1852617   0.0000000), wk =   0.0074074
        k(    5) = (   0.0000000   0.1852617   0.1669080), wk =   0.0148148
        k(    6) = (   0.0000000   0.1852617   0.3338159), wk =   0.0148148
        k(    7) = (   0.0000000   0.3705234   0.0000000), wk =   0.0074074
        k(    8) = (   0.0000000   0.3705234   0.1669080), wk =   0.0148148
        k(    9) = (   0.0000000   0.3705234   0.3338159), wk =   0.0148148
        k(   10) = (   0.0000000   0.5557851   0.0000000), wk =   0.0074074
        k(   11) = (   0.0000000   0.5557851   0.1669080), wk =   0.0148148
        k(   12) = (   0.0000000   0.5557851   0.3338159), wk =   0.0148148
        k(   13) = (   0.0000000   0.7410468   0.0000000), wk =   0.0074074
        k(   14) = (   0.0000000   0.7410468   0.1669080), wk =   0.0148148
        k(   15) = (   0.0000000   0.7410468   0.3338159), wk =   0.0148148
        k(   16) = (   0.1666667   0.0000000   0.0000000), wk =   0.0074074
        k(   17) = (   0.1666667   0.0000000   0.1669080), wk =   0.0148148
        k(   18) = (   0.1666667   0.0000000   0.3338159), wk =   0.0148148
        k(   19) = (   0.1666667   0.1852617   0.0000000), wk =   0.0148148
        k(   20) = (   0.1666667   0.1852617   0.1669080), wk =   0.0296296
        k(   21) = (   0.1666667   0.1852617   0.3338159), wk =   0.0296296
        k(   22) = (   0.1666667   0.3705234   0.0000000), wk =   0.0148148
        k(   23) = (   0.1666667   0.3705234   0.1669080), wk =   0.0296296
        k(   24) = (   0.1666667   0.3705234   0.3338159), wk =   0.0296296
        k(   25) = (   0.1666667   0.5557851   0.0000000), wk =   0.0148148
        k(   26) = (   0.1666667   0.5557851   0.1669080), wk =   0.0296296
        k(   27) = (   0.1666667   0.5557851   0.3338159), wk =   0.0296296
        k(   28) = (   0.1666667   0.7410468   0.0000000), wk =   0.0148148
        k(   29) = (   0.1666667   0.7410468   0.1669080), wk =   0.0296296
        k(   30) = (   0.1666667   0.7410468   0.3338159), wk =   0.0296296
        k(   31) = (   0.3333333   0.0000000   0.0000000), wk =   0.0074074
        k(   32) = (   0.3333333   0.0000000   0.1669080), wk =   0.0148148
        k(   33) = (   0.3333333   0.0000000   0.3338159), wk =   0.0148148
        k(   34) = (   0.3333333   0.1852617   0.0000000), wk =   0.0148148
        k(   35) = (   0.3333333   0.1852617   0.1669080), wk =   0.0296296
        k(   36) = (   0.3333333   0.1852617   0.3338159), wk =   0.0296296
        k(   37) = (   0.3333333   0.3705234   0.0000000), wk =   0.0148148
        k(   38) = (   0.3333333   0.3705234   0.1669080), wk =   0.0296296
        k(   39) = (   0.3333333   0.3705234   0.3338159), wk =   0.0296296
        k(   40) = (   0.3333333   0.5557851   0.0000000), wk =   0.0148148
        k(   41) = (   0.3333333   0.5557851   0.1669080), wk =   0.0296296
        k(   42) = (   0.3333333   0.5557851   0.3338159), wk =   0.0296296
        k(   43) = (   0.3333333   0.7410468   0.0000000), wk =   0.0148148
        k(   44) = (   0.3333333   0.7410468   0.1669080), wk =   0.0296296
        k(   45) = (   0.3333333   0.7410468   0.3338159), wk =   0.0296296
        k(   46) = (  -0.5000000   0.0000000   0.0000000), wk =   0.0037037
        k(   47) = (  -0.5000000   0.0000000   0.1669080), wk =   0.0074074
        k(   48) = (  -0.5000000   0.0000000   0.3338159), wk =   0.0074074
        k(   49) = (  -0.5000000   0.1852617   0.0000000), wk =   0.0074074
        k(   50) = (  -0.5000000   0.1852617   0.1669080), wk =   0.0148148
        k(   51) = (  -0.5000000   0.1852617   0.3338159), wk =   0.0148148
        k(   52) = (  -0.5000000   0.3705234   0.0000000), wk =   0.0074074
        k(   53) = (  -0.5000000   0.3705234   0.1669080), wk =   0.0148148
        k(   54) = (  -0.5000000   0.3705234   0.3338159), wk =   0.0148148
        k(   55) = (  -0.5000000   0.5557851   0.0000000), wk =   0.0074074
        k(   56) = (  -0.5000000   0.5557851   0.1669080), wk =   0.0148148
        k(   57) = (  -0.5000000   0.5557851   0.3338159), wk =   0.0148148
        k(   58) = (  -0.5000000   0.7410468   0.0000000), wk =   0.0074074
        k(   59) = (  -0.5000000   0.7410468   0.1669080), wk =   0.0148148
        k(   60) = (  -0.5000000   0.7410468   0.3338159), wk =   0.0148148

                       cryst. coord.
        k(    1) = (   0.0000000   0.0000000   0.0000000), wk =   0.0037037
        k(    2) = (   0.0000000   0.0000000   0.2000000), wk =   0.0074074
        k(    3) = (   0.0000000   0.0000000   0.4000000), wk =   0.0074074
        k(    4) = (   0.0000000   0.1111111   0.0000000), wk =   0.0074074
        k(    5) = (   0.0000000   0.1111111   0.2000000), wk =   0.0148148
        k(    6) = (   0.0000000   0.1111111   0.4000000), wk =   0.0148148
        k(    7) = (   0.0000000   0.2222222   0.0000000), wk =   0.0074074
        k(    8) = (   0.0000000   0.2222222   0.2000000), wk =   0.0148148
        k(    9) = (   0.0000000   0.2222222   0.4000000), wk =   0.0148148
        k(   10) = (   0.0000000   0.3333333   0.0000000), wk =   0.0074074
        k(   11) = (   0.0000000   0.3333333   0.2000000), wk =   0.0148148
        k(   12) = (   0.0000000   0.3333333   0.4000000), wk =   0.0148148
        k(   13) = (   0.0000000   0.4444444   0.0000000), wk =   0.0074074
        k(   14) = (   0.0000000   0.4444444   0.2000000), wk =   0.0148148
        k(   15) = (   0.0000000   0.4444444   0.4000000), wk =   0.0148148
        k(   16) = (   0.1666667   0.0000000   0.0000000), wk =   0.0074074
        k(   17) = (   0.1666667   0.0000000   0.2000000), wk =   0.0148148
        k(   18) = (   0.1666667   0.0000000   0.4000000), wk =   0.0148148
        k(   19) = (   0.1666667   0.1111111   0.0000000), wk =   0.0148148
        k(   20) = (   0.1666667   0.1111111   0.2000000), wk =   0.0296296
        k(   21) = (   0.1666667   0.1111111   0.4000000), wk =   0.0296296
        k(   22) = (   0.1666667   0.2222222   0.0000000), wk =   0.0148148
        k(   23) = (   0.1666667   0.2222222   0.2000000), wk =   0.0296296
        k(   24) = (   0.1666667   0.2222222   0.4000000), wk =   0.0296296
        k(   25) = (   0.1666667   0.3333333   0.0000000), wk =   0.0148148
        k(   26) = (   0.1666667   0.3333333   0.2000000), wk =   0.0296296
        k(   27) = (   0.1666667   0.3333333   0.4000000), wk =   0.0296296
        k(   28) = (   0.1666667   0.4444444   0.0000000), wk =   0.0148148
        k(   29) = (   0.1666667   0.4444444   0.2000000), wk =   0.0296296
        k(   30) = (   0.1666667   0.4444444   0.4000000), wk =   0.0296296
        k(   31) = (   0.3333333   0.0000000   0.0000000), wk =   0.0074074
        k(   32) = (   0.3333333   0.0000000   0.2000000), wk =   0.0148148
        k(   33) = (   0.3333333   0.0000000   0.4000000), wk =   0.0148148
        k(   34) = (   0.3333333   0.1111111   0.0000000), wk =   0.0148148
        k(   35) = (   0.3333333   0.1111111   0.2000000), wk =   0.0296296
        k(   36) = (   0.3333333   0.1111111   0.4000000), wk =   0.0296296
        k(   37) = (   0.3333333   0.2222222   0.0000000), wk =   0.0148148
        k(   38) = (   0.3333333   0.2222222   0.2000000), wk =   0.0296296
        k(   39) = (   0.3333333   0.2222222   0.4000000), wk =   0.0296296
        k(   40) = (   0.3333333   0.3333333   0.0000000), wk =   0.0148148
        k(   41) = (   0.3333333   0.3333333   0.2000000), wk =   0.0296296
        k(   42) = (   0.3333333   0.3333333   0.4000000), wk =   0.0296296
        k(   43) = (   0.3333333   0.4444444   0.0000000), wk =   0.0148148
        k(   44) = (   0.3333333   0.4444444   0.2000000), wk =   0.0296296
        k(   45) = (   0.3333333   0.4444444   0.4000000), wk =   0.0296296
        k(   46) = (  -0.5000000   0.0000000   0.0000000), wk =   0.0037037
        k(   47) = (  -0.5000000   0.0000000   0.2000000), wk =   0.0074074
        k(   48) = (  -0.5000000   0.0000000   0.4000000), wk =   0.0074074
        k(   49) = (  -0.5000000   0.1111111   0.0000000), wk =   0.0074074
        k(   50) = (  -0.5000000   0.1111111   0.2000000), wk =   0.0148148
        k(   51) = (  -0.5000000   0.1111111   0.4000000), wk =   0.0148148
        k(   52) = (  -0.5000000   0.2222222   0.0000000), wk =   0.0074074
        k(   53) = (  -0.5000000   0.2222222   0.2000000), wk =   0.0148148
        k(   54) = (  -0.5000000   0.2222222   0.4000000), wk =   0.0148148
        k(   55) = (  -0.5000000   0.3333333   0.0000000), wk =   0.0074074
        k(   56) = (  -0.5000000   0.3333333   0.2000000), wk =   0.0148148
        k(   57) = (  -0.5000000   0.3333333   0.4000000), wk =   0.0148148
        k(   58) = (  -0.5000000   0.4444444   0.0000000), wk =   0.0074074
        k(   59) = (  -0.5000000   0.4444444   0.2000000), wk =   0.0148148
        k(   60) = (  -0.5000000   0.4444444   0.4000000), wk =   0.0148148

     Dense  grid:   246407 G-vectors     FFT dimensions: (  90,  54, 108)

     Smooth grid:    87181 G-vectors     FFT dimensions: (  64,  40,  80)

     Dynamical RAM for                 wfc:       9.64 MB

     Dynamical RAM for     wfc (w. buffer):    1166.06 MB

     Dynamical RAM for           str. fact:      11.28 MB

     Dynamical RAM for           local pot:       0.00 MB

     Dynamical RAM for          nlocal pot:      36.55 MB

     Dynamical RAM for                qrad:       5.74 MB

     Dynamical RAM for          rho,v,vnew:      46.59 MB

     Dynamical RAM for               rhoin:      15.53 MB

     Dynamical RAM for            rho*nmix:     120.32 MB

     Dynamical RAM for           G-vectors:      14.76 MB

     Dynamical RAM for          h,s,v(r/c):       0.62 MB

     Dynamical RAM for          <psi|beta>:       0.19 MB

     Dynamical RAM for                 psi:      19.27 MB

     Dynamical RAM for                hpsi:      19.27 MB

     Dynamical RAM for                spsi:      19.27 MB

     Dynamical RAM for      wfcinit/wfcrot:      19.35 MB

     Dynamical RAM for           addusdens:     789.57 MB

     Dynamical RAM for          addusforce:     812.17 MB

     Dynamical RAM for         addusstress:     832.81 MB

     Estimated static dynamical RAM per process >       1.30 GB

     Estimated max dynamical RAM per process >       2.24 GB

     Atomic positions and unit cell read from directory:
     ./out/aiida.save/
 

     Check: negative core charge=   -0.000001
     Generating pointlists ...
     new r_m :   0.1377 (alat units)  2.0994 (a.u.) for type    1
     new r_m :   0.1646 (alat units)  2.5101 (a.u.) for type    2
     new r_m :   0.1377 (alat units)  2.0994 (a.u.) for type    3

     The initial density is read from file :
     ./out/aiida.save/charge-density


     negative rho (up, down):  2.158E+00 9.062E-01
     Starting wfcs from file
     Checking if some PAW data can be deallocated... 

     total cpu time spent up to now is        6.5 secs

     per-process dynamical memory:   534.4 Mb

     Self-consistent Calculation
[tb_dev] Currently allocated     9.16E-05 Mbytes, locked:    0 /   2
[tb_pin] Currently allocated     0.00E+00 Mbytes, locked:    0 /   0

     iteration #  1     ecut=    40.00 Ry     beta= 0.20
     Davidson diagonalization with overlap

---- Real-time Memory Report at c_bands before calling an iterative solver
           940 MiB given to the printing process from OS
           535 MiB allocation reported by mallinfo(arena+hblkhd)
         40385 MiB available memory on the node where the printing process lives
     GPU memory used/free/total (MiB): 1112 / 15168 / 16280
------------------
     c_bands:  1 eigenvalues not converged
     c_bands:  1 eigenvalues not converged
     c_bands:  2 eigenvalues not converged
     c_bands:  1 eigenvalues not converged
     c_bands:  1 eigenvalues not converged
     c_bands:  1 eigenvalues not converged
     c_bands:  1 eigenvalues not converged
     c_bands:  1 eigenvalues not converged
     c_bands:  1 eigenvalues not converged
     c_bands:  1 eigenvalues not converged
     c_bands:  1 eigenvalues not converged
     c_bands:  1 eigenvalues not converged
     c_bands:  1 eigenvalues not converged
     c_bands:  1 eigenvalues not converged
     c_bands:  1 eigenvalues not converged
     c_bands:  1 eigenvalues not converged
     c_bands:  1 eigenvalues not converged
     c_bands:  1 eigenvalues not converged
     c_bands:  1 eigenvalues not converged
     c_bands:  2 eigenvalues not converged
     c_bands:  1 eigenvalues not converged
     c_bands:  1 eigenvalues not converged
     c_bands:  1 eigenvalues not converged
     c_bands:  1 eigenvalues not converged
     c_bands:  2 eigenvalues not converged
     ethr =  1.00E-05,  avg # of iterations = 11.7

     negative rho (up, down):  2.059E+00 9.059E-01

     total cpu time spent up to now is       26.2 secs

     total energy              =   -2015.69856169 Ry
     estimated scf accuracy    <       0.17102007 Ry

     total magnetization       =    -0.00 Bohr mag/cell
     absolute magnetization    =     2.06 Bohr mag/cell
[tb_dev] Currently allocated     1.42E+01 Mbytes, locked:    0 /  14
[tb_pin] Currently allocated     0.00E+00 Mbytes, locked:    0 /   0

     iteration #  2     ecut=    40.00 Ry     beta= 0.20
     Davidson diagonalization with overlap

---- Real-time Memory Report at c_bands before calling an iterative solver
          2758 MiB given to the printing process from OS
          2035 MiB allocation reported by mallinfo(arena+hblkhd)
         37152 MiB available memory on the node where the printing process lives
     GPU memory used/free/total (MiB): 2578 / 13702 / 16280
------------------
     ethr =  1.78E-04,  avg # of iterations =  4.0

     negative rho (up, down):  2.107E+00 9.397E-01

     total cpu time spent up to now is       36.8 secs

     total energy              =   -2015.69590006 Ry
     estimated scf accuracy    <       0.71872701 Ry

     total magnetization       =    -0.00 Bohr mag/cell
     absolute magnetization    =     3.73 Bohr mag/cell
[tb_dev] Currently allocated     1.42E+01 Mbytes, locked:    0 /  14
[tb_pin] Currently allocated     0.00E+00 Mbytes, locked:    0 /   0

     iteration #  3     ecut=    40.00 Ry     beta= 0.20
     Davidson diagonalization with overlap

---- Real-time Memory Report at c_bands before calling an iterative solver
          2858 MiB given to the printing process from OS
         -2044 MiB allocation reported by mallinfo(arena+hblkhd)
         37139 MiB available memory on the node where the printing process lives
     GPU memory used/free/total (MiB): 2578 / 13702 / 16280
------------------
     ethr =  1.78E-04,  avg # of iterations =  2.0

     negative rho (up, down):  2.109E+00 9.574E-01

     total cpu time spent up to now is       46.1 secs

     total energy              =   -2015.69815183 Ry
     estimated scf accuracy    <       0.25289456 Ry

     total magnetization       =    -0.00 Bohr mag/cell
     absolute magnetization    =     2.62 Bohr mag/cell
[tb_dev] Currently allocated     1.42E+01 Mbytes, locked:    0 /  14
[tb_pin] Currently allocated     0.00E+00 Mbytes, locked:    0 /   0

     iteration #  4     ecut=    40.00 Ry     beta= 0.20
     Davidson diagonalization with overlap

---- Real-time Memory Report at c_bands before calling an iterative solver
          2957 MiB given to the printing process from OS
         -2028 MiB allocation reported by mallinfo(arena+hblkhd)
         37122 MiB available memory on the node where the printing process lives
     GPU memory used/free/total (MiB): 2578 / 13702 / 16280
------------------
     ethr =  1.78E-04,  avg # of iterations =  1.5

     negative rho (up, down):  2.109E+00 9.389E-01

     total cpu time spent up to now is       54.8 secs

     total energy              =   -2015.70458751 Ry
     estimated scf accuracy    <       0.13833955 Ry

     total magnetization       =    -0.00 Bohr mag/cell
     absolute magnetization    =     2.52 Bohr mag/cell
[tb_dev] Currently allocated     1.42E+01 Mbytes, locked:    0 /  14
[tb_pin] Currently allocated     0.00E+00 Mbytes, locked:    0 /   0

     iteration #  5     ecut=    40.00 Ry     beta= 0.20
     Davidson diagonalization with overlap

---- Real-time Memory Report at c_bands before calling an iterative solver
          2987 MiB given to the printing process from OS
         -2015 MiB allocation reported by mallinfo(arena+hblkhd)
         37109 MiB available memory on the node where the printing process lives
     GPU memory used/free/total (MiB): 2578 / 13702 / 16280
------------------
     ethr =  1.44E-04,  avg # of iterations =  1.7

     negative rho (up, down):  2.113E+00 9.714E-01

     total cpu time spent up to now is       63.5 secs

     total energy              =   -2015.69188276 Ry
     estimated scf accuracy    <       0.55043317 Ry

     total magnetization       =    -0.00 Bohr mag/cell
     absolute magnetization    =     1.96 Bohr mag/cell
[tb_dev] Currently allocated     1.42E+01 Mbytes, locked:    0 /  14
[tb_pin] Currently allocated     0.00E+00 Mbytes, locked:    0 /   0

     iteration #  6     ecut=    40.00 Ry     beta= 0.20
     Davidson diagonalization with overlap

---- Real-time Memory Report at c_bands before calling an iterative solver
          3015 MiB given to the printing process from OS
         -1999 MiB allocation reported by mallinfo(arena+hblkhd)
         37096 MiB available memory on the node where the printing process lives
     GPU memory used/free/total (MiB): 2578 / 13702 / 16280
------------------
     ethr =  1.44E-04,  avg # of iterations =  2.0

     negative rho (up, down):  2.113E+00 9.721E-01

     total cpu time spent up to now is       72.5 secs

     total energy              =   -2015.70361156 Ry
     estimated scf accuracy    <       0.16126873 Ry

     total magnetization       =     0.00 Bohr mag/cell
     absolute magnetization    =     2.01 Bohr mag/cell
[tb_dev] Currently allocated     1.42E+01 Mbytes, locked:    0 /  14
[tb_pin] Currently allocated     0.00E+00 Mbytes, locked:    0 /   0

     iteration #  7     ecut=    40.00 Ry     beta= 0.20
     Davidson diagonalization with overlap

---- Real-time Memory Report at c_bands before calling an iterative solver
          3034 MiB given to the printing process from OS
         -1981 MiB allocation reported by mallinfo(arena+hblkhd)
         37080 MiB available memory on the node where the printing process lives
     GPU memory used/free/total (MiB): 2578 / 13702 / 16280
------------------
     ethr =  1.44E-04,  avg # of iterations =  1.1

     negative rho (up, down):  2.117E+00 9.480E-01

     total cpu time spent up to now is       80.7 secs

     total energy              =   -2015.70218054 Ry
     estimated scf accuracy    <       0.20336694 Ry

     total magnetization       =    -0.00 Bohr mag/cell
     absolute magnetization    =     1.92 Bohr mag/cell
[tb_dev] Currently allocated     1.42E+01 Mbytes, locked:    0 /  14
[tb_pin] Currently allocated     0.00E+00 Mbytes, locked:    0 /   0

     iteration #  8     ecut=    40.00 Ry     beta= 0.20
     Davidson diagonalization with overlap

---- Real-time Memory Report at c_bands before calling an iterative solver
          3049 MiB given to the printing process from OS
         -1965 MiB allocation reported by mallinfo(arena+hblkhd)
         37063 MiB available memory on the node where the printing process lives
     GPU memory used/free/total (MiB): 2578 / 13702 / 16280
------------------
     ethr =  1.44E-04,  avg # of iterations =  1.8

     negative rho (up, down):  2.150E+00 8.818E-01

     total cpu time spent up to now is       89.5 secs

     total energy              =   -2015.70629335 Ry
     estimated scf accuracy    <       0.30623793 Ry

     total magnetization       =    -0.00 Bohr mag/cell
     absolute magnetization    =     1.35 Bohr mag/cell
[tb_dev] Currently allocated     1.42E+01 Mbytes, locked:    0 /  14
[tb_pin] Currently allocated     0.00E+00 Mbytes, locked:    0 /   0

     iteration #  9     ecut=    40.00 Ry     beta= 0.20
     Davidson diagonalization with overlap

---- Real-time Memory Report at c_bands before calling an iterative solver
          3062 MiB given to the printing process from OS
         -1952 MiB allocation reported by mallinfo(arena+hblkhd)
         37051 MiB available memory on the node where the printing process lives
     GPU memory used/free/total (MiB): 2578 / 13702 / 16280
------------------
     ethr =  1.44E-04,  avg # of iterations =  1.5

     negative rho (up, down):  2.128E+00 9.410E-01

     total cpu time spent up to now is       98.0 secs

     total energy              =   -2015.70382610 Ry
     estimated scf accuracy    <       0.33650260 Ry

     total magnetization       =    -0.00 Bohr mag/cell
     absolute magnetization    =     1.14 Bohr mag/cell
[tb_dev] Currently allocated     1.42E+01 Mbytes, locked:    0 /  14
[tb_pin] Currently allocated     0.00E+00 Mbytes, locked:    0 /   0

     iteration # 10     ecut=    40.00 Ry     beta= 0.20
     Davidson diagonalization with overlap

---- Real-time Memory Report at c_bands before calling an iterative solver
          3075 MiB given to the printing process from OS
         -1939 MiB allocation reported by mallinfo(arena+hblkhd)
         37037 MiB available memory on the node where the printing process lives
     GPU memory used/free/total (MiB): 2578 / 13702 / 16280
------------------
     ethr =  1.44E-04,  avg # of iterations =  1.0

     negative rho (up, down):  2.089E+00 1.037E+00

     total cpu time spent up to now is      106.3 secs

     total energy              =   -2015.69650785 Ry
     estimated scf accuracy    <       0.25345750 Ry

     total magnetization       =     0.00 Bohr mag/cell
     absolute magnetization    =     1.40 Bohr mag/cell
[tb_dev] Currently allocated     1.42E+01 Mbytes, locked:    0 /  14
[tb_pin] Currently allocated     0.00E+00 Mbytes, locked:    0 /   0

     iteration # 11     ecut=    40.00 Ry     beta= 0.20
     Davidson diagonalization with overlap

---- Real-time Memory Report at c_bands before calling an iterative solver
          3086 MiB given to the printing process from OS
         -1932 MiB allocation reported by mallinfo(arena+hblkhd)
         37029 MiB available memory on the node where the printing process lives
     GPU memory used/free/total (MiB): 2578 / 13702 / 16280
------------------
     ethr =  1.44E-04,  avg # of iterations =  4.0

     negative rho (up, down):  2.093E+00 1.042E+00

     total cpu time spent up to now is      116.9 secs

     total energy              =   -2015.71210050 Ry
     estimated scf accuracy    <       1.74274696 Ry

     total magnetization       =    -0.00 Bohr mag/cell
     absolute magnetization    =     5.54 Bohr mag/cell
[tb_dev] Currently allocated     1.42E+01 Mbytes, locked:    0 /  14
[tb_pin] Currently allocated     0.00E+00 Mbytes, locked:    0 /   0

     iteration # 12     ecut=    40.00 Ry     beta= 0.20
     Davidson diagonalization with overlap

---- Real-time Memory Report at c_bands before calling an iterative solver
          3090 MiB given to the printing process from OS
         -1924 MiB allocation reported by mallinfo(arena+hblkhd)
         37024 MiB available memory on the node where the printing process lives
     GPU memory used/free/total (MiB): 2578 / 13702 / 16280
------------------
     ethr =  1.44E-04,  avg # of iterations =  1.7

     negative rho (up, down):  2.090E+00 1.068E+00

     total cpu time spent up to now is      125.6 secs

     total energy              =   -2015.70758439 Ry
     estimated scf accuracy    <       1.47636360 Ry

     total magnetization       =     0.00 Bohr mag/cell
     absolute magnetization    =     6.03 Bohr mag/cell
[tb_dev] Currently allocated     1.42E+01 Mbytes, locked:    0 /  14
[tb_pin] Currently allocated     0.00E+00 Mbytes, locked:    0 /   0

     iteration # 13     ecut=    40.00 Ry     beta= 0.20
     Davidson diagonalization with overlap

---- Real-time Memory Report at c_bands before calling an iterative solver
          3098 MiB given to the printing process from OS
         -1916 MiB allocation reported by mallinfo(arena+hblkhd)
         37016 MiB available memory on the node where the printing process lives
     GPU memory used/free/total (MiB): 2578 / 13702 / 16280
------------------
     ethr =  1.44E-04,  avg # of iterations =  2.0

     negative rho (up, down):  2.151E+00 9.180E-01

     total cpu time spent up to now is      134.7 secs

     total energy              =   -2015.68168218 Ry
     estimated scf accuracy    <       1.20638495 Ry

     total magnetization       =    -0.00 Bohr mag/cell
     absolute magnetization    =     5.31 Bohr mag/cell
[tb_dev] Currently allocated     1.42E+01 Mbytes, locked:    0 /  14
[tb_pin] Currently allocated     0.00E+00 Mbytes, locked:    0 /   0

     iteration # 14     ecut=    40.00 Ry     beta= 0.20
     Davidson diagonalization with overlap

---- Real-time Memory Report at c_bands before calling an iterative solver
          3108 MiB given to the printing process from OS
         -1908 MiB allocation reported by mallinfo(arena+hblkhd)
         37010 MiB available memory on the node where the printing process lives
     GPU memory used/free/total (MiB): 2578 / 13702 / 16280
------------------
     ethr =  1.44E-04,  avg # of iterations =  3.4

     negative rho (up, down):  2.195E+00 8.387E-01

     total cpu time spent up to now is      144.7 secs

     total energy              =   -2015.69778096 Ry
     estimated scf accuracy    <       0.03613266 Ry

     total magnetization       =    -0.00 Bohr mag/cell
     absolute magnetization    =     2.74 Bohr mag/cell
[tb_dev] Currently allocated     1.42E+01 Mbytes, locked:    0 /  14
[tb_pin] Currently allocated     0.00E+00 Mbytes, locked:    0 /   0

     iteration # 15     ecut=    40.00 Ry     beta= 0.20
     Davidson diagonalization with overlap

---- Real-time Memory Report at c_bands before calling an iterative solver
          3116 MiB given to the printing process from OS
         -1900 MiB allocation reported by mallinfo(arena+hblkhd)
         37002 MiB available memory on the node where the printing process lives
     GPU memory used/free/total (MiB): 2578 / 13702 / 16280
------------------
     ethr =  3.76E-05,  avg # of iterations =  4.7

     negative rho (up, down):  2.198E+00 8.317E-01

     total cpu time spent up to now is      156.5 secs

     total energy              =   -2015.71482159 Ry
     estimated scf accuracy    <       0.82490000 Ry

     total magnetization       =     0.00 Bohr mag/cell
     absolute magnetization    =     1.20 Bohr mag/cell
[tb_dev] Currently allocated     1.42E+01 Mbytes, locked:    0 /  14
[tb_pin] Currently allocated     0.00E+00 Mbytes, locked:    0 /   0

     iteration # 16     ecut=    40.00 Ry     beta= 0.20
     Davidson diagonalization with overlap

---- Real-time Memory Report at c_bands before calling an iterative solver
          3124 MiB given to the printing process from OS
         -1891 MiB allocation reported by mallinfo(arena+hblkhd)
         36991 MiB available memory on the node where the printing process lives
     GPU memory used/free/total (MiB): 2578 / 13702 / 16280
------------------
     ethr =  3.76E-05,  avg # of iterations =  1.5

     negative rho (up, down):  2.131E+00 9.590E-01

     total cpu time spent up to now is      165.0 secs

     total energy              =   -2015.69079646 Ry
     estimated scf accuracy    <       0.88858417 Ry

     total magnetization       =    -0.00 Bohr mag/cell
     absolute magnetization    =     1.15 Bohr mag/cell
[tb_dev] Currently allocated     1.42E+01 Mbytes, locked:    0 /  14
[tb_pin] Currently allocated     0.00E+00 Mbytes, locked:    0 /   0

     iteration # 17     ecut=    40.00 Ry     beta= 0.20
     Davidson diagonalization with overlap

---- Real-time Memory Report at c_bands before calling an iterative solver
          3133 MiB given to the printing process from OS
         -1883 MiB allocation reported by mallinfo(arena+hblkhd)
         36984 MiB available memory on the node where the printing process lives
     GPU memory used/free/total (MiB): 2578 / 13702 / 16280
------------------
     ethr =  3.76E-05,  avg # of iterations =  5.2

     negative rho (up, down):  2.137E+00 9.498E-01

     total cpu time spent up to now is      176.6 secs

     total energy              =   -2015.70141616 Ry
     estimated scf accuracy    <       0.11550001 Ry

     total magnetization       =     0.00 Bohr mag/cell
     absolute magnetization    =     1.71 Bohr mag/cell
[tb_dev] Currently allocated     1.42E+01 Mbytes, locked:    0 /  14
[tb_pin] Currently allocated     0.00E+00 Mbytes, locked:    0 /   0

     iteration # 18     ecut=    40.00 Ry     beta= 0.20
     Davidson diagonalization with overlap

---- Real-time Memory Report at c_bands before calling an iterative solver
          3141 MiB given to the printing process from OS
         -1875 MiB allocation reported by mallinfo(arena+hblkhd)
         36974 MiB available memory on the node where the printing process lives
     GPU memory used/free/total (MiB): 2578 / 13702 / 16280
------------------
     ethr =  3.76E-05,  avg # of iterations =  1.5

     negative rho (up, down):  2.141E+00 9.375E-01

     total cpu time spent up to now is      185.2 secs

     total energy              =   -2015.70135687 Ry
     estimated scf accuracy    <       0.13055890 Ry

     total magnetization       =    -0.00 Bohr mag/cell
     absolute magnetization    =     1.92 Bohr mag/cell
[tb_dev] Currently allocated     1.42E+01 Mbytes, locked:    0 /  14
[tb_pin] Currently allocated     0.00E+00 Mbytes, locked:    0 /   0

     iteration # 19     ecut=    40.00 Ry     beta= 0.20
     Davidson diagonalization with overlap

---- Real-time Memory Report at c_bands before calling an iterative solver
          3152 MiB given to the printing process from OS
         -1866 MiB allocation reported by mallinfo(arena+hblkhd)
         36967 MiB available memory on the node where the printing process lives
     GPU memory used/free/total (MiB): 2578 / 13702 / 16280
------------------
     ethr =  3.76E-05,  avg # of iterations =  1.5

     negative rho (up, down):  2.136E+00 9.475E-01

     total cpu time spent up to now is      193.9 secs

     total energy              =   -2015.70273172 Ry
     estimated scf accuracy    <       0.14229050 Ry

     total magnetization       =     0.00 Bohr mag/cell
     absolute magnetization    =     1.68 Bohr mag/cell
[tb_dev] Currently allocated     1.42E+01 Mbytes, locked:    0 /  14
[tb_pin] Currently allocated     0.00E+00 Mbytes, locked:    0 /   0

     iteration # 20     ecut=    40.00 Ry     beta= 0.20
     Davidson diagonalization with overlap

---- Real-time Memory Report at c_bands before calling an iterative solver
          3161 MiB given to the printing process from OS
         -1858 MiB allocation reported by mallinfo(arena+hblkhd)
         36959 MiB available memory on the node where the printing process lives
     GPU memory used/free/total (MiB): 2578 / 13702 / 16280
------------------
     ethr =  3.76E-05,  avg # of iterations =  1.0

     negative rho (up, down):  2.167E+00 8.830E-01

     total cpu time spent up to now is      202.0 secs

     total energy              =   -2015.70285920 Ry
     estimated scf accuracy    <       0.14743170 Ry

     total magnetization       =    -0.00 Bohr mag/cell
     absolute magnetization    =     1.71 Bohr mag/cell
[tb_dev] Currently allocated     1.42E+01 Mbytes, locked:    0 /  14
[tb_pin] Currently allocated     0.00E+00 Mbytes, locked:    0 /   0

     iteration # 21     ecut=    40.00 Ry     beta= 0.20
     Davidson diagonalization with overlap

---- Real-time Memory Report at c_bands before calling an iterative solver
          3172 MiB given to the printing process from OS
         -1849 MiB allocation reported by mallinfo(arena+hblkhd)
         36948 MiB available memory on the node where the printing process lives
     GPU memory used/free/total (MiB): 2578 / 13702 / 16280
------------------
     ethr =  3.76E-05,  avg # of iterations =  2.1

     negative rho (up, down):  2.167E+00 8.828E-01

     total cpu time spent up to now is      211.0 secs

     total energy              =   -2015.70506691 Ry
     estimated scf accuracy    <       0.30498914 Ry

     total magnetization       =    -0.00 Bohr mag/cell
     absolute magnetization    =     1.18 Bohr mag/cell
[tb_dev] Currently allocated     1.42E+01 Mbytes, locked:    0 /  14
[tb_pin] Currently allocated     0.00E+00 Mbytes, locked:    0 /   0

     iteration # 22     ecut=    40.00 Ry     beta= 0.20
     Davidson diagonalization with overlap

---- Real-time Memory Report at c_bands before calling an iterative solver
          3180 MiB given to the printing process from OS
         -1841 MiB allocation reported by mallinfo(arena+hblkhd)
         36942 MiB available memory on the node where the printing process lives
     GPU memory used/free/total (MiB): 2578 / 13702 / 16280
------------------
     ethr =  3.76E-05,  avg # of iterations =  1.4

     negative rho (up, down):  2.169E+00 8.766E-01

     total cpu time spent up to now is      219.4 secs

     total energy              =   -2015.70900395 Ry
     estimated scf accuracy    <       0.32034114 Ry

     total magnetization       =     0.00 Bohr mag/cell
     absolute magnetization    =     1.19 Bohr mag/cell
[tb_dev] Currently allocated     1.42E+01 Mbytes, locked:    0 /  14
[tb_pin] Currently allocated     0.00E+00 Mbytes, locked:    0 /   0

     iteration # 23     ecut=    40.00 Ry     beta= 0.20
     Davidson diagonalization with overlap

---- Real-time Memory Report at c_bands before calling an iterative solver
          3188 MiB given to the printing process from OS
         -1833 MiB allocation reported by mallinfo(arena+hblkhd)
         36933 MiB available memory on the node where the printing process lives
     GPU memory used/free/total (MiB): 2578 / 13702 / 16280
------------------
     ethr =  3.76E-05,  avg # of iterations =  3.5

     negative rho (up, down):  2.189E+00 8.197E-01

     total cpu time spent up to now is      229.4 secs

     total energy              =   -2015.71043858 Ry
     estimated scf accuracy    <       0.80728275 Ry

     total magnetization       =     0.00 Bohr mag/cell
     absolute magnetization    =     0.85 Bohr mag/cell
[tb_dev] Currently allocated     1.42E+01 Mbytes, locked:    0 /  14
[tb_pin] Currently allocated     0.00E+00 Mbytes, locked:    0 /   0

     iteration # 24     ecut=    40.00 Ry     beta= 0.20
     Davidson diagonalization with overlap

---- Real-time Memory Report at c_bands before calling an iterative solver
          3197 MiB given to the printing process from OS
         -1824 MiB allocation reported by mallinfo(arena+hblkhd)
         36923 MiB available memory on the node where the printing process lives
     GPU memory used/free/total (MiB): 2578 / 13702 / 16280
------------------
     ethr =  3.76E-05,  avg # of iterations =  3.8

     negative rho (up, down):  2.184E+00 8.311E-01

     total cpu time spent up to now is      240.3 secs

     total energy              =   -2015.71753526 Ry
     estimated scf accuracy    <       0.83167405 Ry

     total magnetization       =    -0.00 Bohr mag/cell
     absolute magnetization    =     2.02 Bohr mag/cell
[tb_dev] Currently allocated     1.42E+01 Mbytes, locked:    0 /  14
[tb_pin] Currently allocated     0.00E+00 Mbytes, locked:    0 /   0

     iteration # 25     ecut=    40.00 Ry     beta= 0.20
     Davidson diagonalization with overlap

---- Real-time Memory Report at c_bands before calling an iterative solver
          3205 MiB given to the printing process from OS
         -1816 MiB allocation reported by mallinfo(arena+hblkhd)
         36916 MiB available memory on the node where the printing process lives
     GPU memory used/free/total (MiB): 2578 / 13702 / 16280
------------------
     ethr =  3.76E-05,  avg # of iterations =  1.4

     negative rho (up, down):  2.205E+00 7.862E-01

     total cpu time spent up to now is      248.7 secs

     total energy              =   -2015.71661991 Ry
     estimated scf accuracy    <       0.84819990 Ry

     total magnetization       =    -0.00 Bohr mag/cell
     absolute magnetization    =     2.08 Bohr mag/cell
[tb_dev] Currently allocated     1.42E+01 Mbytes, locked:    0 /  14
[tb_pin] Currently allocated     0.00E+00 Mbytes, locked:    0 /   0

     iteration # 26     ecut=    40.00 Ry     beta= 0.20
     Davidson diagonalization with overlap

---- Real-time Memory Report at c_bands before calling an iterative solver
          3217 MiB given to the printing process from OS
         -1807 MiB allocation reported by mallinfo(arena+hblkhd)
         36909 MiB available memory on the node where the printing process lives
     GPU memory used/free/total (MiB): 2578 / 13702 / 16280
------------------
     ethr =  3.76E-05,  avg # of iterations =  1.3

     negative rho (up, down):  2.187E+00 8.308E-01

     total cpu time spent up to now is      257.1 secs

     total energy              =   -2015.70743242 Ry
     estimated scf accuracy    <       0.90094275 Ry

     total magnetization       =    -0.00 Bohr mag/cell
     absolute magnetization    =     1.91 Bohr mag/cell
[tb_dev] Currently allocated     1.42E+01 Mbytes, locked:    0 /  14
[tb_pin] Currently allocated     0.00E+00 Mbytes, locked:    0 /   0

     iteration # 27     ecut=    40.00 Ry     beta= 0.20
     Davidson diagonalization with overlap

---- Real-time Memory Report at c_bands before calling an iterative solver
          3225 MiB given to the printing process from OS
         -1799 MiB allocation reported by mallinfo(arena+hblkhd)
         36900 MiB available memory on the node where the printing process lives
     GPU memory used/free/total (MiB): 2578 / 13702 / 16280
------------------
     ethr =  3.76E-05,  avg # of iterations =  3.9

     negative rho (up, down):  2.221E+00 7.775E-01

     total cpu time spent up to now is      268.3 secs

     total energy              =   -2015.70229863 Ry
     estimated scf accuracy    <       0.80681956 Ry

     total magnetization       =     0.00 Bohr mag/cell
     absolute magnetization    =     2.26 Bohr mag/cell
[tb_dev] Currently allocated     1.42E+01 Mbytes, locked:    0 /  14
[tb_pin] Currently allocated     0.00E+00 Mbytes, locked:    0 /   0

     iteration # 28     ecut=    40.00 Ry     beta= 0.20
     Davidson diagonalization with overlap

---- Real-time Memory Report at c_bands before calling an iterative solver
          3231 MiB given to the printing process from OS
         -1790 MiB allocation reported by mallinfo(arena+hblkhd)
         36890 MiB available memory on the node where the printing process lives
     GPU memory used/free/total (MiB): 2578 / 13702 / 16280
------------------
     ethr =  3.76E-05,  avg # of iterations =  4.9

     negative rho (up, down):  2.224E+00 8.202E-01

     total cpu time spent up to now is      280.7 secs

     total energy              =   -2015.67168761 Ry
     estimated scf accuracy    <       2.15850748 Ry

     total magnetization       =    -0.00 Bohr mag/cell
     absolute magnetization    =     2.42 Bohr mag/cell
[tb_dev] Currently allocated     1.42E+01 Mbytes, locked:    0 /  14
[tb_pin] Currently allocated     0.00E+00 Mbytes, locked:    0 /   0

     iteration # 29     ecut=    40.00 Ry     beta= 0.20
     Davidson diagonalization with overlap

---- Real-time Memory Report at c_bands before calling an iterative solver
          3243 MiB given to the printing process from OS
         -1782 MiB allocation reported by mallinfo(arena+hblkhd)
         36883 MiB available memory on the node where the printing process lives
     GPU memory used/free/total (MiB): 2578 / 13702 / 16280
------------------
     ethr =  3.76E-05,  avg # of iterations =  5.1

     negative rho (up, down):  2.218E+00 7.926E-01

     total cpu time spent up to now is      293.1 secs

     total energy              =   -2015.69886868 Ry
     estimated scf accuracy    <       1.31325162 Ry

     total magnetization       =    -0.00 Bohr mag/cell
     absolute magnetization    =     2.74 Bohr mag/cell
[tb_dev] Currently allocated     1.42E+01 Mbytes, locked:    0 /  14
[tb_pin] Currently allocated     0.00E+00 Mbytes, locked:    0 /   0

     iteration # 30     ecut=    40.00 Ry     beta= 0.20
     Davidson diagonalization with overlap

---- Real-time Memory Report at c_bands before calling an iterative solver
          3252 MiB given to the printing process from OS
         -1774 MiB allocation reported by mallinfo(arena+hblkhd)
         36875 MiB available memory on the node where the printing process lives
     GPU memory used/free/total (MiB): 2578 / 13702 / 16280
------------------
     ethr =  3.76E-05,  avg # of iterations =  4.2

     negative rho (up, down):  2.214E+00 8.661E-01

     total cpu time spent up to now is      304.5 secs

     total energy              =   -2015.70199814 Ry
     estimated scf accuracy    <       0.76513944 Ry

     total magnetization       =    -0.00 Bohr mag/cell
     absolute magnetization    =     0.85 Bohr mag/cell
[tb_dev] Currently allocated     1.42E+01 Mbytes, locked:    0 /  14
[tb_pin] Currently allocated     0.00E+00 Mbytes, locked:    0 /   0

     iteration # 31     ecut=    40.00 Ry     beta= 0.20
     Davidson diagonalization with overlap

---- Real-time Memory Report at c_bands before calling an iterative solver
          3257 MiB given to the printing process from OS
         -1765 MiB allocation reported by mallinfo(arena+hblkhd)
         36864 MiB available memory on the node where the printing process lives
     GPU memory used/free/total (MiB): 2578 / 13702 / 16280
------------------
     ethr =  3.76E-05,  avg # of iterations =  6.3

     negative rho (up, down):  2.218E+00 8.738E-01

     total cpu time spent up to now is      318.0 secs

     total energy              =   -2015.76655822 Ry
     estimated scf accuracy    <       3.38613046 Ry

     total magnetization       =    -0.00 Bohr mag/cell
     absolute magnetization    =     2.59 Bohr mag/cell
[tb_dev] Currently allocated     1.42E+01 Mbytes, locked:    0 /  14
[tb_pin] Currently allocated     0.00E+00 Mbytes, locked:    0 /   0

     iteration # 32     ecut=    40.00 Ry     beta= 0.20
     Davidson diagonalization with overlap

---- Real-time Memory Report at c_bands before calling an iterative solver
          3268 MiB given to the printing process from OS
         -1757 MiB allocation reported by mallinfo(arena+hblkhd)
         36859 MiB available memory on the node where the printing process lives
     GPU memory used/free/total (MiB): 2578 / 13702 / 16280
------------------
     ethr =  3.76E-05,  avg # of iterations =  3.7

     negative rho (up, down):  2.241E+00 6.591E-01

     total cpu time spent up to now is      328.4 secs

     total energy              =   -2015.64897192 Ry
     estimated scf accuracy    <       4.94810014 Ry

     total magnetization       =     0.00 Bohr mag/cell
     absolute magnetization    =     3.42 Bohr mag/cell
[tb_dev] Currently allocated     1.42E+01 Mbytes, locked:    0 /  14
[tb_pin] Currently allocated     0.00E+00 Mbytes, locked:    0 /   0

     iteration # 33     ecut=    40.00 Ry     beta= 0.20
     Davidson diagonalization with overlap

---- Real-time Memory Report at c_bands before calling an iterative solver
          3276 MiB given to the printing process from OS
         -1748 MiB allocation reported by mallinfo(arena+hblkhd)
         36849 MiB available memory on the node where the printing process lives
     GPU memory used/free/total (MiB): 2578 / 13702 / 16280
------------------
     ethr =  3.76E-05,  avg # of iterations =  5.9

     negative rho (up, down):  2.167E+00 8.042E-01

     total cpu time spent up to now is      342.1 secs

     total energy              =   -2015.69386055 Ry
     estimated scf accuracy    <       0.42000749 Ry

     total magnetization       =     0.00 Bohr mag/cell
     absolute magnetization    =     3.71 Bohr mag/cell
[tb_dev] Currently allocated     1.42E+01 Mbytes, locked:    0 /  14
[tb_pin] Currently allocated     0.00E+00 Mbytes, locked:    0 /   0

     iteration # 34     ecut=    40.00 Ry     beta= 0.20
     Davidson diagonalization with overlap

---- Real-time Memory Report at c_bands before calling an iterative solver
          3285 MiB given to the printing process from OS
         -1740 MiB allocation reported by mallinfo(arena+hblkhd)
         36841 MiB available memory on the node where the printing process lives
     GPU memory used/free/total (MiB): 2578 / 13702 / 16280
------------------
     ethr =  3.76E-05,  avg # of iterations =  5.5

     negative rho (up, down):  2.171E+00 7.885E-01

     total cpu time spent up to now is      355.5 secs

     total energy              =   -2015.75116236 Ry
     estimated scf accuracy    <       2.41611502 Ry

     total magnetization       =    -0.00 Bohr mag/cell
     absolute magnetization    =     5.40 Bohr mag/cell
[tb_dev] Currently allocated     1.42E+01 Mbytes, locked:    0 /  14
[tb_pin] Currently allocated     0.00E+00 Mbytes, locked:    0 /   0

     iteration # 35     ecut=    40.00 Ry     beta= 0.20
     Davidson diagonalization with overlap

---- Real-time Memory Report at c_bands before calling an iterative solver
          3296 MiB given to the printing process from OS
         -1731 MiB allocation reported by mallinfo(arena+hblkhd)
         36833 MiB available memory on the node where the printing process lives
     GPU memory used/free/total (MiB): 2578 / 13702 / 16280
------------------
     ethr =  3.76E-05,  avg # of iterations =  3.7

     negative rho (up, down):  2.237E+00 6.842E-01

     total cpu time spent up to now is      365.7 secs

     total energy              =   -2015.64484228 Ry
     estimated scf accuracy    <       2.91659071 Ry

     total magnetization       =     0.00 Bohr mag/cell
     absolute magnetization    =     6.70 Bohr mag/cell
[tb_dev] Currently allocated     1.42E+01 Mbytes, locked:    0 /  14
[tb_pin] Currently allocated     0.00E+00 Mbytes, locked:    0 /   0

     iteration # 36     ecut=    40.00 Ry     beta= 0.20
     Davidson diagonalization with overlap

---- Real-time Memory Report at c_bands before calling an iterative solver
          3304 MiB given to the printing process from OS
         -1723 MiB allocation reported by mallinfo(arena+hblkhd)
         36826 MiB available memory on the node where the printing process lives
     GPU memory used/free/total (MiB): 2578 / 13702 / 16280
------------------
     ethr =  3.76E-05,  avg # of iterations =  7.4

     negative rho (up, down):  2.195E+00 7.866E-01

     total cpu time spent up to now is      381.6 secs

     total energy              =   -2015.67694226 Ry
     estimated scf accuracy    <       4.03084910 Ry

     total magnetization       =     0.00 Bohr mag/cell
     absolute magnetization    =     2.34 Bohr mag/cell
[tb_dev] Currently allocated     1.42E+01 Mbytes, locked:    0 /  14
[tb_pin] Currently allocated     0.00E+00 Mbytes, locked:    0 /   0

     iteration # 37     ecut=    40.00 Ry     beta= 0.20
     Davidson diagonalization with overlap

---- Real-time Memory Report at c_bands before calling an iterative solver
          3312 MiB given to the printing process from OS
         -1715 MiB allocation reported by mallinfo(arena+hblkhd)
         36818 MiB available memory on the node where the printing process lives
     GPU memory used/free/total (MiB): 2578 / 13702 / 16280
------------------
     ethr =  3.76E-05,  avg # of iterations =  5.6

     negative rho (up, down):  2.202E+00 7.206E-01

     total cpu time spent up to now is      395.1 secs

     total energy              =   -2015.71767754 Ry
     estimated scf accuracy    <       1.01156239 Ry

     total magnetization       =    -0.00 Bohr mag/cell
     absolute magnetization    =     1.51 Bohr mag/cell
[tb_dev] Currently allocated     1.42E+01 Mbytes, locked:    0 /  14
[tb_pin] Currently allocated     0.00E+00 Mbytes, locked:    0 /   0

     iteration # 38     ecut=    40.00 Ry     beta= 0.20
     Davidson diagonalization with overlap

---- Real-time Memory Report at c_bands before calling an iterative solver
          3321 MiB given to the printing process from OS
         -1706 MiB allocation reported by mallinfo(arena+hblkhd)
         36809 MiB available memory on the node where the printing process lives
     GPU memory used/free/total (MiB): 2578 / 13702 / 16280
------------------
     ethr =  3.76E-05,  avg # of iterations =  4.3

     negative rho (up, down):  2.202E+00 7.231E-01

     total cpu time spent up to now is      406.1 secs

     total energy              =   -2015.73676203 Ry
     estimated scf accuracy    <       1.44021284 Ry

     total magnetization       =    -0.00 Bohr mag/cell
     absolute magnetization    =     1.21 Bohr mag/cell
[tb_dev] Currently allocated     1.42E+01 Mbytes, locked:    0 /  14
[tb_pin] Currently allocated     0.00E+00 Mbytes, locked:    0 /   0

     iteration # 39     ecut=    40.00 Ry     beta= 0.20
     Davidson diagonalization with overlap

---- Real-time Memory Report at c_bands before calling an iterative solver
          3335 MiB given to the printing process from OS
         -1674 MiB allocation reported by mallinfo(arena+hblkhd)
         36782 MiB available memory on the node where the printing process lives
     GPU memory used/free/total (MiB): 2578 / 13702 / 16280
------------------
     ethr =  3.76E-05,  avg # of iterations =  3.4

     negative rho (up, down):  2.204E+00 7.597E-01

     total cpu time spent up to now is      416.1 secs

     total energy              =   -2015.69946356 Ry
     estimated scf accuracy    <       2.24372913 Ry

     total magnetization       =     0.00 Bohr mag/cell
     absolute magnetization    =     0.96 Bohr mag/cell
[tb_dev] Currently allocated     1.42E+01 Mbytes, locked:    0 /  14
[tb_pin] Currently allocated     0.00E+00 Mbytes, locked:    0 /   0

     iteration # 40     ecut=    40.00 Ry     beta= 0.20
     Davidson diagonalization with overlap

---- Real-time Memory Report at c_bands before calling an iterative solver
          3343 MiB given to the printing process from OS
         -1665 MiB allocation reported by mallinfo(arena+hblkhd)
         36773 MiB available memory on the node where the printing process lives
     GPU memory used/free/total (MiB): 2578 / 13702 / 16280
------------------
     ethr =  3.76E-05,  avg # of iterations =  4.0

     negative rho (up, down):  2.210E+00 8.526E-01

     total cpu time spent up to now is      427.3 secs

     total energy              =   -2015.67940401 Ry
     estimated scf accuracy    <       0.67624753 Ry

     total magnetization       =    -0.00 Bohr mag/cell
     absolute magnetization    =     1.47 Bohr mag/cell
[tb_dev] Currently allocated     1.42E+01 Mbytes, locked:    0 /  14
[tb_pin] Currently allocated     0.00E+00 Mbytes, locked:    0 /   0

     iteration # 41     ecut=    40.00 Ry     beta= 0.20
     Davidson diagonalization with overlap

---- Real-time Memory Report at c_bands before calling an iterative solver
          3351 MiB given to the printing process from OS
         -1657 MiB allocation reported by mallinfo(arena+hblkhd)
         36765 MiB available memory on the node where the printing process lives
     GPU memory used/free/total (MiB): 2578 / 13702 / 16280
------------------
     ethr =  3.76E-05,  avg # of iterations =  6.2

     negative rho (up, down):  2.222E+00 8.008E-01

     total cpu time spent up to now is      440.6 secs

     total energy              =   -2015.69337894 Ry
     estimated scf accuracy    <       0.88568683 Ry

     total magnetization       =     0.00 Bohr mag/cell
     absolute magnetization    =     3.70 Bohr mag/cell
[tb_dev] Currently allocated     1.42E+01 Mbytes, locked:    0 /  14
[tb_pin] Currently allocated     0.00E+00 Mbytes, locked:    0 /   0

     iteration # 42     ecut=    40.00 Ry     beta= 0.20
     Davidson diagonalization with overlap

---- Real-time Memory Report at c_bands before calling an iterative solver
          3360 MiB given to the printing process from OS
         -1648 MiB allocation reported by mallinfo(arena+hblkhd)
         36758 MiB available memory on the node where the printing process lives
     GPU memory used/free/total (MiB): 2578 / 13702 / 16280
------------------
     ethr =  3.76E-05,  avg # of iterations =  4.6

     negative rho (up, down):  2.218E+00 7.682E-01

     total cpu time spent up to now is      451.9 secs

     total energy              =   -2015.70117137 Ry
     estimated scf accuracy    <       0.13898278 Ry

     total magnetization       =    -0.00 Bohr mag/cell
     absolute magnetization    =     2.93 Bohr mag/cell
[tb_dev] Currently allocated     1.42E+01 Mbytes, locked:    0 /  14
[tb_pin] Currently allocated     0.00E+00 Mbytes, locked:    0 /   0

     iteration # 43     ecut=    40.00 Ry     beta= 0.20
     Davidson diagonalization with overlap

---- Real-time Memory Report at c_bands before calling an iterative solver
          3368 MiB given to the printing process from OS
         -1640 MiB allocation reported by mallinfo(arena+hblkhd)
         36749 MiB available memory on the node where the printing process lives
     GPU memory used/free/total (MiB): 2578 / 13702 / 16280
------------------
     ethr =  3.76E-05,  avg # of iterations =  6.0

     negative rho (up, down):  2.208E+00 7.928E-01

     total cpu time spent up to now is      465.1 secs

     total energy              =   -2015.71008249 Ry
     estimated scf accuracy    <       1.19391059 Ry

     total magnetization       =    -0.00 Bohr mag/cell
     absolute magnetization    =     2.38 Bohr mag/cell
[tb_dev] Currently allocated     1.42E+01 Mbytes, locked:    0 /  14
[tb_pin] Currently allocated     0.00E+00 Mbytes, locked:    0 /   0

     iteration # 44     ecut=    40.00 Ry     beta= 0.20
     Davidson diagonalization with overlap

---- Real-time Memory Report at c_bands before calling an iterative solver
          3379 MiB given to the printing process from OS
         -1632 MiB allocation reported by mallinfo(arena+hblkhd)
         36737 MiB available memory on the node where the printing process lives
     GPU memory used/free/total (MiB): 2578 / 13702 / 16280
------------------
     ethr =  3.76E-05,  avg # of iterations =  3.5

     negative rho (up, down):  2.207E+00 7.652E-01

     total cpu time spent up to now is      475.6 secs

     total energy              =   -2015.69972409 Ry
     estimated scf accuracy    <       0.85991072 Ry

     total magnetization       =     0.00 Bohr mag/cell
     absolute magnetization    =     1.36 Bohr mag/cell
[tb_dev] Currently allocated     1.42E+01 Mbytes, locked:    0 /  14
[tb_pin] Currently allocated     0.00E+00 Mbytes, locked:    0 /   0

     iteration # 45     ecut=    40.00 Ry     beta= 0.20
     Davidson diagonalization with overlap

---- Real-time Memory Report at c_bands before calling an iterative solver
          3388 MiB given to the printing process from OS
         -1623 MiB allocation reported by mallinfo(arena+hblkhd)
         36732 MiB available memory on the node where the printing process lives
     GPU memory used/free/total (MiB): 2578 / 13702 / 16280
------------------
     ethr =  3.76E-05,  avg # of iterations =  5.4

     negative rho (up, down):  2.210E+00 7.810E-01

     total cpu time spent up to now is      487.3 secs

     total energy              =   -2015.70730506 Ry
     estimated scf accuracy    <       0.41965238 Ry

     total magnetization       =    -0.00 Bohr mag/cell
     absolute magnetization    =     3.30 Bohr mag/cell
[tb_dev] Currently allocated     1.42E+01 Mbytes, locked:    0 /  14
[tb_pin] Currently allocated     0.00E+00 Mbytes, locked:    0 /   0

     iteration # 46     ecut=    40.00 Ry     beta= 0.20
     Davidson diagonalization with overlap

---- Real-time Memory Report at c_bands before calling an iterative solver
          3396 MiB given to the printing process from OS
         -1615 MiB allocation reported by mallinfo(arena+hblkhd)
         36720 MiB available memory on the node where the printing process lives
     GPU memory used/free/total (MiB): 2578 / 13702 / 16280
------------------
     ethr =  3.76E-05,  avg # of iterations =  4.3

     negative rho (up, down):  2.220E+00 7.643E-01

     total cpu time spent up to now is      498.0 secs

     total energy              =   -2015.71479752 Ry
     estimated scf accuracy    <       0.69500651 Ry

     total magnetization       =     0.00 Bohr mag/cell
     absolute magnetization    =     1.83 Bohr mag/cell
[tb_dev] Currently allocated     1.42E+01 Mbytes, locked:    0 /  14
[tb_pin] Currently allocated     0.00E+00 Mbytes, locked:    0 /   0

     iteration # 47     ecut=    40.00 Ry     beta= 0.20
     Davidson diagonalization with overlap

---- Real-time Memory Report at c_bands before calling an iterative solver
          3404 MiB given to the printing process from OS
         -1606 MiB allocation reported by mallinfo(arena+hblkhd)
         36710 MiB available memory on the node where the printing process lives
     GPU memory used/free/total (MiB): 2578 / 13702 / 16280
------------------
     ethr =  3.76E-05,  avg # of iterations =  2.3

     negative rho (up, down):  2.219E+00 7.765E-01

     total cpu time spent up to now is      507.4 secs

     total energy              =   -2015.72115190 Ry
     estimated scf accuracy    <       0.87038304 Ry

     total magnetization       =    -0.00 Bohr mag/cell
     absolute magnetization    =     2.10 Bohr mag/cell
[tb_dev] Currently allocated     1.42E+01 Mbytes, locked:    0 /  14
[tb_pin] Currently allocated     0.00E+00 Mbytes, locked:    0 /   0

     iteration # 48     ecut=    40.00 Ry     beta= 0.20
     Davidson diagonalization with overlap

---- Real-time Memory Report at c_bands before calling an iterative solver
          3413 MiB given to the printing process from OS
         -1622 MiB allocation reported by mallinfo(arena+hblkhd)
         36725 MiB available memory on the node where the printing process lives
     GPU memory used/free/total (MiB): 2578 / 13702 / 16280
------------------
     ethr =  3.76E-05,  avg # of iterations =  1.7

     negative rho (up, down):  2.213E+00 8.474E-01

     total cpu time spent up to now is      516.2 secs

     total energy              =   -2015.66827059 Ry
     estimated scf accuracy    <       1.23688300 Ry

     total magnetization       =    -0.00 Bohr mag/cell
     absolute magnetization    =     1.88 Bohr mag/cell
[tb_dev] Currently allocated     1.42E+01 Mbytes, locked:    0 /  14
[tb_pin] Currently allocated     0.00E+00 Mbytes, locked:    0 /   0

     iteration # 49     ecut=    40.00 Ry     beta= 0.20
     Davidson diagonalization with overlap

---- Real-time Memory Report at c_bands before calling an iterative solver
          3423 MiB given to the printing process from OS
         -1589 MiB allocation reported by mallinfo(arena+hblkhd)
         36693 MiB available memory on the node where the printing process lives
     GPU memory used/free/total (MiB): 2578 / 13702 / 16280
------------------
     ethr =  3.76E-05,  avg # of iterations =  4.3

     negative rho (up, down):  2.216E+00 8.411E-01

     total cpu time spent up to now is      528.2 secs

     total energy              =   -2015.71274377 Ry
     estimated scf accuracy    <       0.70047272 Ry

     total magnetization       =    -0.00 Bohr mag/cell
     absolute magnetization    =     4.95 Bohr mag/cell
[tb_dev] Currently allocated     1.42E+01 Mbytes, locked:    0 /  14
[tb_pin] Currently allocated     0.00E+00 Mbytes, locked:    0 /   0

     iteration # 50     ecut=    40.00 Ry     beta= 0.20
     Davidson diagonalization with overlap

---- Real-time Memory Report at c_bands before calling an iterative solver
          3432 MiB given to the printing process from OS
         -1581 MiB allocation reported by mallinfo(arena+hblkhd)
         36682 MiB available memory on the node where the printing process lives
     GPU memory used/free/total (MiB): 2578 / 13702 / 16280
------------------
     ethr =  3.76E-05,  avg # of iterations =  1.4

     negative rho (up, down):  2.220E+00 8.158E-01

     total cpu time spent up to now is      536.6 secs

     total energy              =   -2015.70794624 Ry
     estimated scf accuracy    <       0.77913583 Ry

     total magnetization       =    -0.00 Bohr mag/cell
     absolute magnetization    =     4.87 Bohr mag/cell
[tb_dev] Currently allocated     1.42E+01 Mbytes, locked:    0 /  14
[tb_pin] Currently allocated     0.00E+00 Mbytes, locked:    0 /   0

     iteration # 51     ecut=    40.00 Ry     beta= 0.20
     Davidson diagonalization with overlap

---- Real-time Memory Report at c_bands before calling an iterative solver
          3440 MiB given to the printing process from OS
         -1573 MiB allocation reported by mallinfo(arena+hblkhd)
         36678 MiB available memory on the node where the printing process lives
     GPU memory used/free/total (MiB): 2578 / 13702 / 16280
------------------
     ethr =  3.76E-05,  avg # of iterations =  2.0

     negative rho (up, down):  2.222E+00 8.220E-01

     total cpu time spent up to now is      545.6 secs

     total energy              =   -2015.71448512 Ry
     estimated scf accuracy    <       0.63139094 Ry

     total magnetization       =     0.00 Bohr mag/cell
     absolute magnetization    =     4.67 Bohr mag/cell
[tb_dev] Currently allocated     1.42E+01 Mbytes, locked:    0 /  14
[tb_pin] Currently allocated     0.00E+00 Mbytes, locked:    0 /   0

     iteration # 52     ecut=    40.00 Ry     beta= 0.20
     Davidson diagonalization with overlap

---- Real-time Memory Report at c_bands before calling an iterative solver
          3449 MiB given to the printing process from OS
         -1564 MiB allocation reported by mallinfo(arena+hblkhd)
         36667 MiB available memory on the node where the printing process lives
     GPU memory used/free/total (MiB): 2578 / 13702 / 16280
------------------
     ethr =  3.76E-05,  avg # of iterations =  1.8

     negative rho (up, down):  2.221E+00 7.248E-01

     total cpu time spent up to now is      554.4 secs

     total energy              =   -2015.68637865 Ry
     estimated scf accuracy    <       0.86218423 Ry

     total magnetization       =     0.00 Bohr mag/cell
     absolute magnetization    =     4.74 Bohr mag/cell
[tb_dev] Currently allocated     1.42E+01 Mbytes, locked:    0 /  14
[tb_pin] Currently allocated     0.00E+00 Mbytes, locked:    0 /   0

     iteration # 53     ecut=    40.00 Ry     beta= 0.20
     Davidson diagonalization with overlap

---- Real-time Memory Report at c_bands before calling an iterative solver
          3460 MiB given to the printing process from OS
         -1556 MiB allocation reported by mallinfo(arena+hblkhd)
         36659 MiB available memory on the node where the printing process lives
     GPU memory used/free/total (MiB): 2578 / 13702 / 16280
------------------
     ethr =  3.76E-05,  avg # of iterations =  6.0

     negative rho (up, down):  2.217E+00 7.942E-01

     total cpu time spent up to now is      567.7 secs

     total energy              =   -2015.69793730 Ry
     estimated scf accuracy    <       0.72001610 Ry

     total magnetization       =     0.00 Bohr mag/cell
     absolute magnetization    =     1.40 Bohr mag/cell
[tb_dev] Currently allocated     1.42E+01 Mbytes, locked:    0 /  14
[tb_pin] Currently allocated     0.00E+00 Mbytes, locked:    0 /   0

     iteration # 54     ecut=    40.00 Ry     beta= 0.20
     Davidson diagonalization with overlap

---- Real-time Memory Report at c_bands before calling an iterative solver
          3471 MiB given to the printing process from OS
         -1547 MiB allocation reported by mallinfo(arena+hblkhd)
         36653 MiB available memory on the node where the printing process lives
     GPU memory used/free/total (MiB): 2578 / 13702 / 16280
------------------
     ethr =  3.76E-05,  avg # of iterations =  4.5

     negative rho (up, down):  2.219E+00 7.970E-01

     total cpu time spent up to now is      578.6 secs

     total energy              =   -2015.69847245 Ry
     estimated scf accuracy    <       0.31438718 Ry

     total magnetization       =    -0.00 Bohr mag/cell
     absolute magnetization    =     1.20 Bohr mag/cell
[tb_dev] Currently allocated     1.42E+01 Mbytes, locked:    0 /  14
[tb_pin] Currently allocated     0.00E+00 Mbytes, locked:    0 /   0

     iteration # 55     ecut=    40.00 Ry     beta= 0.20
     Davidson diagonalization with overlap

---- Real-time Memory Report at c_bands before calling an iterative solver
          3479 MiB given to the printing process from OS
         -1539 MiB allocation reported by mallinfo(arena+hblkhd)
         36642 MiB available memory on the node where the printing process lives
     GPU memory used/free/total (MiB): 2578 / 13702 / 16280
------------------
     ethr =  3.76E-05,  avg # of iterations =  3.2

     negative rho (up, down):  2.223E+00 7.463E-01

     total cpu time spent up to now is      588.4 secs

     total energy              =   -2015.70830683 Ry
     estimated scf accuracy    <       0.19156992 Ry

     total magnetization       =    -0.00 Bohr mag/cell
     absolute magnetization    =     1.73 Bohr mag/cell
[tb_dev] Currently allocated     1.42E+01 Mbytes, locked:    0 /  14
[tb_pin] Currently allocated     0.00E+00 Mbytes, locked:    0 /   0

     iteration # 56     ecut=    40.00 Ry     beta= 0.20
     Davidson diagonalization with overlap

---- Real-time Memory Report at c_bands before calling an iterative solver
          3490 MiB given to the printing process from OS
         -1531 MiB allocation reported by mallinfo(arena+hblkhd)
         36634 MiB available memory on the node where the printing process lives
     GPU memory used/free/total (MiB): 2578 / 13702 / 16280
------------------
     ethr =  3.76E-05,  avg # of iterations =  3.9

     negative rho (up, down):  2.223E+00 7.383E-01

     total cpu time spent up to now is      599.6 secs

     total energy              =   -2015.70746488 Ry
     estimated scf accuracy    <       0.91323221 Ry

     total magnetization       =    -0.00 Bohr mag/cell
     absolute magnetization    =     0.92 Bohr mag/cell
[tb_dev] Currently allocated     1.42E+01 Mbytes, locked:    0 /  14
[tb_pin] Currently allocated     0.00E+00 Mbytes, locked:    0 /   0

     iteration # 57     ecut=    40.00 Ry     beta= 0.20
     Davidson diagonalization with overlap

---- Real-time Memory Report at c_bands before calling an iterative solver
          3499 MiB given to the printing process from OS
         -1522 MiB allocation reported by mallinfo(arena+hblkhd)
         36627 MiB available memory on the node where the printing process lives
     GPU memory used/free/total (MiB): 2578 / 13702 / 16280
------------------
     ethr =  3.76E-05,  avg # of iterations =  1.6

     negative rho (up, down):  2.222E+00 8.060E-01

     total cpu time spent up to now is      608.3 secs

     total energy              =   -2015.69558488 Ry
     estimated scf accuracy    <       0.66106718 Ry

     total magnetization       =     0.00 Bohr mag/cell
     absolute magnetization    =     0.64 Bohr mag/cell
[tb_dev] Currently allocated     1.42E+01 Mbytes, locked:    0 /  14
[tb_pin] Currently allocated     0.00E+00 Mbytes, locked:    0 /   0

     iteration # 58     ecut=    40.00 Ry     beta= 0.20
[...]
     GPU memory used/free/total (MiB): 2578 / 13702 / 16280
------------------
     ethr =  3.76E-05,  avg # of iterations =  7.2

     negative rho (up, down):  2.217E+00 7.945E-01

     total cpu time spent up to now is      701.9 secs

     total energy              =   -2015.70377019 Ry
     estimated scf accuracy    <       0.84929876 Ry

     total magnetization       =    -0.00 Bohr mag/cell
     absolute magnetization    =     0.64 Bohr mag/cell
[tb_dev] Currently allocated     1.42E+01 Mbytes, locked:    0 /  14
[tb_pin] Currently allocated     0.00E+00 Mbytes, locked:    0 /   0

     iteration # 66     ecut=    40.00 Ry     beta= 0.20
     Davidson diagonalization with overlap

---- Real-time Memory Report at c_bands before calling an iterative solver
          3578 MiB given to the printing process from OS
         -1446 MiB allocation reported by mallinfo(arena+hblkhd)
         36550 MiB available memory on the node where the printing process lives
     GPU memory used/free/total (MiB): 2578 / 13702 / 16280
------------------
     ethr =  3.76E-05,  avg # of iterations =  2.0

     negative rho (up, down):  2.224E+00 8.523E-01

     total cpu time spent up to now is      710.8 secs

     total energy              =   -2015.68567613 Ry
     estimated scf accuracy    <       0.58909206 Ry

     total magnetization       =     0.00 Bohr mag/cell
     absolute magnetization    =     0.94 Bohr mag/cell
[tb_dev] Currently allocated     1.42E+01 Mbytes, locked:    0 /  14
[tb_pin] Currently allocated     0.00E+00 Mbytes, locked:    0 /   0

     iteration # 67     ecut=    40.00 Ry     beta= 0.20
     Davidson diagonalization with overlap

---- Real-time Memory Report at c_bands before calling an iterative solver
          3589 MiB given to the printing process from OS
         -1438 MiB allocation reported by mallinfo(arena+hblkhd)
         36542 MiB available memory on the node where the printing process lives
     GPU memory used/free/total (MiB): 2578 / 13702 / 16280
------------------
     ethr =  3.76E-05,  avg # of iterations =  4.2

     negative rho (up, down):  2.229E+00 8.468E-01

     total cpu time spent up to now is      722.2 secs

     total energy              =   -2015.70869596 Ry
     estimated scf accuracy    <       0.45948006 Ry

     total magnetization       =    -0.00 Bohr mag/cell
     absolute magnetization    =     3.38 Bohr mag/cell
[tb_dev] Currently allocated     1.42E+01 Mbytes, locked:    0 /  14
[tb_pin] Currently allocated     0.00E+00 Mbytes, locked:    0 /   0

     iteration # 68     ecut=    40.00 Ry     beta= 0.20
     Davidson diagonalization with overlap

---- Real-time Memory Report at c_bands before calling an iterative solver
          3598 MiB given to the printing process from OS
         -1429 MiB allocation reported by mallinfo(arena+hblkhd)
         36530 MiB available memory on the node where the printing process lives
     GPU memory used/free/total (MiB): 2578 / 13702 / 16280
------------------
     ethr =  3.76E-05,  avg # of iterations =  1.6

     negative rho (up, down):  2.227E+00 8.205E-01

     total cpu time spent up to now is      730.8 secs

     total energy              =   -2015.70407796 Ry
     estimated scf accuracy    <       0.65708349 Ry

     total magnetization       =     0.00 Bohr mag/cell
     absolute magnetization    =     3.43 Bohr mag/cell
[tb_dev] Currently allocated     1.42E+01 Mbytes, locked:    0 /  14
[tb_pin] Currently allocated     0.00E+00 Mbytes, locked:    0 /   0

     iteration # 69     ecut=    40.00 Ry     beta= 0.20
     Davidson diagonalization with overlap

---- Real-time Memory Report at c_bands before calling an iterative solver
          3606 MiB given to the printing process from OS
         -1421 MiB allocation reported by mallinfo(arena+hblkhd)
         36525 MiB available memory on the node where the printing process lives
     GPU memory used/free/total (MiB): 2578 / 13702 / 16280
------------------
     ethr =  3.76E-05,  avg # of iterations =  1.8

     negative rho (up, down):  2.228E+00 8.367E-01

     total cpu time spent up to now is      739.6 secs

     total energy              =   -2015.70732193 Ry
     estimated scf accuracy    <       0.46101130 Ry

     total magnetization       =    -0.00 Bohr mag/cell
     absolute magnetization    =     3.15 Bohr mag/cell
[tb_dev] Currently allocated     1.42E+01 Mbytes, locked:    0 /  14
[tb_pin] Currently allocated     0.00E+00 Mbytes, locked:    0 /   0

     iteration # 70     ecut=    40.00 Ry     beta= 0.20
     Davidson diagonalization with overlap

---- Real-time Memory Report at c_bands before calling an iterative solver
          3616 MiB given to the printing process from OS
         -1409 MiB allocation reported by mallinfo(arena+hblkhd)
         36514 MiB available memory on the node where the printing process lives
     GPU memory used/free/total (MiB): 2578 / 13702 / 16280
------------------
     ethr =  3.76E-05,  avg # of iterations =  1.2

     negative rho (up, down):  2.217E+00 8.626E-01

     total cpu time spent up to now is      747.9 secs

     total energy              =   -2015.70509111 Ry
     estimated scf accuracy    <       0.56869613 Ry

     total magnetization       =     0.00 Bohr mag/cell
     absolute magnetization    =     3.33 Bohr mag/cell
[tb_dev] Currently allocated     1.42E+01 Mbytes, locked:    0 /  14
[tb_pin] Currently allocated     0.00E+00 Mbytes, locked:    0 /   0

     iteration # 71     ecut=    40.00 Ry     beta= 0.20
     Davidson diagonalization with overlap

---- Real-time Memory Report at c_bands before calling an iterative solver
          3627 MiB given to the printing process from OS
         -1400 MiB allocation reported by mallinfo(arena+hblkhd)
         36501 MiB available memory on the node where the printing process lives
     GPU memory used/free/total (MiB): 2578 / 13702 / 16280
------------------
     ethr =  3.76E-05,  avg # of iterations =  1.5

     negative rho (up, down):  2.219E+00 8.572E-01

     total cpu time spent up to now is      756.4 secs

     total energy              =   -2015.70562339 Ry
     estimated scf accuracy    <       0.44205012 Ry

     total magnetization       =    -0.00 Bohr mag/cell
     absolute magnetization    =     3.58 Bohr mag/cell
[tb_dev] Currently allocated     1.42E+01 Mbytes, locked:    0 /  14
[tb_pin] Currently allocated     0.00E+00 Mbytes, locked:    0 /   0

     iteration # 72     ecut=    40.00 Ry     beta= 0.20
     Davidson diagonalization with overlap

---- Real-time Memory Report at c_bands before calling an iterative solver
          3635 MiB given to the printing process from OS
         -1392 MiB allocation reported by mallinfo(arena+hblkhd)
         36494 MiB available memory on the node where the printing process lives
     GPU memory used/free/total (MiB): 2578 / 13702 / 16280
------------------
     ethr =  3.76E-05,  avg # of iterations =  1.0

     negative rho (up, down):  2.216E+00 8.715E-01

     total cpu time spent up to now is      764.7 secs

     total energy              =   -2015.70832990 Ry
     estimated scf accuracy    <       0.44726786 Ry

     total magnetization       =    -0.00 Bohr mag/cell
     absolute magnetization    =     3.59 Bohr mag/cell
[tb_dev] Currently allocated     1.42E+01 Mbytes, locked:    0 /  14
[tb_pin] Currently allocated     0.00E+00 Mbytes, locked:    0 /   0

     iteration # 73     ecut=    40.00 Ry     beta= 0.20
     Davidson diagonalization with overlap

---- Real-time Memory Report at c_bands before calling an iterative solver
          3644 MiB given to the printing process from OS
         -1383 MiB allocation reported by mallinfo(arena+hblkhd)
         36486 MiB available memory on the node where the printing process lives
     GPU memory used/free/total (MiB): 2578 / 13702 / 16280
------------------
     ethr =  3.76E-05,  avg # of iterations =  1.5

     negative rho (up, down):  2.211E+00 8.786E-01

     total cpu time spent up to now is      773.2 secs

     total energy              =   -2015.70829151 Ry
     estimated scf accuracy    <       0.57818435 Ry

     total magnetization       =    -0.00 Bohr mag/cell
     absolute magnetization    =     4.04 Bohr mag/cell
[tb_dev] Currently allocated     1.42E+01 Mbytes, locked:    0 /  14
[tb_pin] Currently allocated     0.00E+00 Mbytes, locked:    0 /   0

     iteration # 74     ecut=    40.00 Ry     beta= 0.20
     Davidson diagonalization with overlap

---- Real-time Memory Report at c_bands before calling an iterative solver
          3655 MiB given to the printing process from OS
         -1375 MiB allocation reported by mallinfo(arena+hblkhd)
         36478 MiB available memory on the node where the printing process lives
     GPU memory used/free/total (MiB): 2578 / 13702 / 16280
------------------
     ethr =  3.76E-05,  avg # of iterations =  1.2

     negative rho (up, down):  2.197E+00 8.861E-01

     total cpu time spent up to now is      781.5 secs

     total energy              =   -2015.69578069 Ry
     estimated scf accuracy    <       0.53367680 Ry

     total magnetization       =     0.00 Bohr mag/cell
     absolute magnetization    =     4.24 Bohr mag/cell
[tb_dev] Currently allocated     1.42E+01 Mbytes, locked:    0 /  14
[tb_pin] Currently allocated     0.00E+00 Mbytes, locked:    0 /   0

     iteration # 75     ecut=    40.00 Ry     beta= 0.20
     Davidson diagonalization with overlap

---- Real-time Memory Report at c_bands before calling an iterative solver
          3663 MiB given to the printing process from OS
         -1367 MiB allocation reported by mallinfo(arena+hblkhd)
         36470 MiB available memory on the node where the printing process lives
     GPU memory used/free/total (MiB): 2578 / 13702 / 16280
------------------
     ethr =  3.76E-05,  avg # of iterations =  4.6

     negative rho (up, down):  2.205E+00 8.273E-01

     total cpu time spent up to now is      792.4 secs

     total energy              =   -2015.68989488 Ry
     estimated scf accuracy    <       0.16801148 Ry

     total magnetization       =    -0.00 Bohr mag/cell
     absolute magnetization    =     4.39 Bohr mag/cell
[tb_dev] Currently allocated     1.42E+01 Mbytes, locked:    0 /  14
[tb_pin] Currently allocated     0.00E+00 Mbytes, locked:    0 /   0

     iteration # 76     ecut=    40.00 Ry     beta= 0.20
     Davidson diagonalization with overlap

---- Real-time Memory Report at c_bands before calling an iterative solver
          3674 MiB given to the printing process from OS
         -1354 MiB allocation reported by mallinfo(arena+hblkhd)
         36454 MiB available memory on the node where the printing process lives
     GPU memory used/free/total (MiB): 2578 / 13702 / 16280
------------------
     ethr =  3.76E-05,  avg # of iterations =  7.1

     negative rho (up, down):  2.207E+00 8.079E-01

     total cpu time spent up to now is      806.5 secs

     total energy              =   -2015.71072955 Ry
     estimated scf accuracy    <       2.84907350 Ry

     total magnetization       =     0.00 Bohr mag/cell
     absolute magnetization    =     0.90 Bohr mag/cell
[tb_dev] Currently allocated     1.42E+01 Mbytes, locked:    0 /  14
[tb_pin] Currently allocated     0.00E+00 Mbytes, locked:    0 /   0

     iteration # 77     ecut=    40.00 Ry     beta= 0.20
     Davidson diagonalization with overlap

---- Real-time Memory Report at c_bands before calling an iterative solver
          3682 MiB given to the printing process from OS
         -1346 MiB allocation reported by mallinfo(arena+hblkhd)
         36449 MiB available memory on the node where the printing process lives
     GPU memory used/free/total (MiB): 2578 / 13702 / 16280
------------------
     ethr =  3.76E-05,  avg # of iterations =  4.0

     negative rho (up, down):  2.237E+00 6.877E-01

     total cpu time spent up to now is      817.4 secs

     total energy              =   -2015.71124178 Ry
     estimated scf accuracy    <       1.26350879 Ry

     total magnetization       =     0.00 Bohr mag/cell
     absolute magnetization    =     1.05 Bohr mag/cell
[tb_dev] Currently allocated     1.42E+01 Mbytes, locked:    0 /  14
[tb_pin] Currently allocated     0.00E+00 Mbytes, locked:    0 /   0

     iteration # 78     ecut=    40.00 Ry     beta= 0.20
     Davidson diagonalization with overlap

---- Real-time Memory Report at c_bands before calling an iterative solver
          3691 MiB given to the printing process from OS
         -1337 MiB allocation reported by mallinfo(arena+hblkhd)
         36437 MiB available memory on the node where the printing process lives
     GPU memory used/free/total (MiB): 2578 / 13702 / 16280
------------------
     ethr =  3.76E-05,  avg # of iterations =  5.5

     negative rho (up, down):  2.216E+00 7.260E-01

     total cpu time spent up to now is      829.4 secs

     total energy              =   -2015.70658666 Ry
     estimated scf accuracy    <       1.47493179 Ry

     total magnetization       =    -0.00 Bohr mag/cell
     absolute magnetization    =     1.13 Bohr mag/cell
[tb_dev] Currently allocated     1.42E+01 Mbytes, locked:    0 /  14
[tb_pin] Currently allocated     0.00E+00 Mbytes, locked:    0 /   0

     iteration # 79     ecut=    40.00 Ry     beta= 0.20
     Davidson diagonalization with overlap

---- Real-time Memory Report at c_bands before calling an iterative solver
          3699 MiB given to the printing process from OS
         -1329 MiB allocation reported by mallinfo(arena+hblkhd)
         36431 MiB available memory on the node where the printing process lives
     GPU memory used/free/total (MiB): 2578 / 13702 / 16280
------------------
     ethr =  3.76E-05,  avg # of iterations =  5.1

     negative rho (up, down):  2.213E+00 8.070E-01

     total cpu time spent up to now is      841.3 secs

     total energy              =   -2015.72188867 Ry
     estimated scf accuracy    <       0.90815357 Ry

     total magnetization       =     0.00 Bohr mag/cell
     absolute magnetization    =     1.54 Bohr mag/cell
[tb_dev] Currently allocated     1.42E+01 Mbytes, locked:    0 /  14
[tb_pin] Currently allocated     0.00E+00 Mbytes, locked:    0 /   0

     iteration # 80     ecut=    40.00 Ry     beta= 0.20
     Davidson diagonalization with overlap

---- Real-time Memory Report at c_bands before calling an iterative solver
          3707 MiB given to the printing process from OS
         -1320 MiB allocation reported by mallinfo(arena+hblkhd)
         36423 MiB available memory on the node where the printing process lives
     GPU memory used/free/total (MiB): 2578 / 13702 / 16280
------------------
     ethr =  3.76E-05,  avg # of iterations =  4.1

     negative rho (up, down):  2.217E+00 8.086E-01

     total cpu time spent up to now is      852.6 secs

     total energy              =   -2015.69186590 Ry
     estimated scf accuracy    <       2.62108842 Ry

     total magnetization       =    -0.00 Bohr mag/cell
     absolute magnetization    =     1.75 Bohr mag/cell

     End of self-consistent calculation

     convergence NOT achieved after  80 iterations: stopping

     Writing config to output data dir ./out/aiida.save/
 
     init_run     :     35.08s CPU      5.58s WALL (       1 calls)
     electrons    :   2157.86s CPU    846.19s WALL (       1 calls)

     Called by init_run:
     wfcinit      :      0.57s CPU      0.57s WALL (       1 calls)
                                        0.57s GPU  (       1 calls)
     potinit      :     20.02s CPU      2.03s WALL (       1 calls)
     hinit0       :      8.80s CPU      2.15s WALL (       1 calls)

     Called by electrons:
     c_bands      :    633.53s CPU    608.23s WALL (      80 calls)
     sum_band     :     97.68s CPU    107.97s WALL (      80 calls)
     v_of_rho     :     34.85s CPU      3.17s WALL (      81 calls)
     v_h          :      5.31s CPU      0.47s WALL (      81 calls)
     v_xc         :     29.53s CPU      2.70s WALL (      81 calls)
     newd         :     83.76s CPU      7.95s WALL (      81 calls)
                                        7.95s GPU  (      81 calls)
     PAW_pot      :   1267.30s CPU    114.55s WALL (      81 calls)
     mix_rho      :     46.36s CPU      5.03s WALL (      80 calls)

     Called by c_bands:
     init_us_2    :     42.73s CPU     47.69s WALL (   19200 calls)
     init_us_2:gp :     42.37s CPU     47.35s WALL (   19200 calls)
     cegterg      :    516.98s CPU    499.26s WALL (    9600 calls)

     Called by sum_band:
     sum_band:wei :      0.06s CPU      0.06s WALL (      80 calls)
                                        0.06s GPU  (      80 calls)
     sum_band:loo :     85.58s CPU     95.67s WALL (      80 calls)
                                       95.67s GPU  (      80 calls)
     sum_band:buf :     26.70s CPU     27.85s WALL (    9600 calls)
                                       27.79s GPU  (    9600 calls)
     sum_band:ini :     18.18s CPU     22.99s WALL (    9600 calls)
                                       22.94s GPU  (    9600 calls)
     sum_band:cal :      0.28s CPU      4.15s WALL (    9600 calls)
                                        3.49s GPU  (    9600 calls)
     sum_band:bec :      3.17s CPU      3.45s WALL (    9600 calls)
                                        3.39s GPU  (    9600 calls)
     addusdens    :      8.98s CPU      9.15s WALL (      80 calls)
                                        9.15s GPU  (      80 calls)
     addusd:skk   :      0.04s CPU      0.05s WALL (     240 calls)
                                        0.05s GPU  (     240 calls)

     Called by *egterg:
     cdiaghg      :    194.72s CPU    203.12s WALL (   43244 calls)
                                      202.83s GPU  (   43244 calls)
     cegterg:over :     11.18s CPU     10.69s WALL (   33764 calls)
     cegterg:upda :     17.44s CPU     16.90s WALL (   33764 calls)
     cegterg:last :      8.45s CPU      8.07s WALL (   18363 calls)
     h_psi        :    243.45s CPU    222.71s WALL (   43364 calls)
                                      222.14s GPU  (   43364 calls)
     s_psi        :      8.10s CPU     20.55s WALL (   43364 calls)
                                       19.43s GPU  (   43364 calls)
     g_psi        :      0.27s CPU      1.50s WALL (   33764 calls)
                                        1.28s GPU  (   33764 calls)

     Called by h_psi:
     h_psi:calbec :      1.68s CPU     12.53s WALL (   43364 calls)
                                       12.26s GPU  (   43364 calls)
     vloc_psi     :    199.64s CPU    182.69s WALL (   43364 calls)
                                      182.41s GPU  (   43364 calls)
     add_vuspsi   :     13.86s CPU     23.63s WALL (   43364 calls)
                                       23.35s GPU  (   43364 calls)

     General routines
     calbec       :      1.43s CPU      1.35s WALL (   52964 calls)
     fft          :      2.69s CPU      0.52s WALL (    2023 calls)
                                        0.42s GPU  (    1861 calls)
     ffts         :      0.12s CPU      0.04s WALL (     322 calls)
                                        0.01s GPU  (     160 calls)
     fftw         :      5.48s CPU    142.94s WALL (  246524 calls)
                                      141.49s GPU  (  246524 calls)
     interpolate  :      4.67s CPU      0.42s WALL (     162 calls)
     davcio       :      0.49s CPU      1.58s WALL (     258 calls)
 
     Parallel routines

     PAW routines
     PAW_pot      :   1267.30s CPU    114.55s WALL (      81 calls)
     PAW_symme    :      0.51s CPU      0.08s WALL (     160 calls)
 
     PWSCF        :  36m36.18s CPU  14m13.88s WALL

 
   This run was terminated on:  22:27:11  23Oct2023            

=------------------------------------------------------------------------------=
   JOB DONE.
=------------------------------------------------------------------------------=
