
     Program PWSCF v.7.2 starts on 23Oct2023 at 20: 8:41 

     This program is part of the open-source Quantum ESPRESSO suite
     for quantum simulation of materials; please cite
         "P. Giannozzi et al., J. Phys.:Condens. Matter 21 395502 (2009);
         "P. Giannozzi et al., J. Phys.:Condens. Matter 29 465901 (2017);
         "P. Giannozzi et al., J. Chem. Phys. 152 154105 (2020);
          URL http://www.quantum-espresso.org", 
     in publications or presentations arising from this work. More details at
     http://www.quantum-espresso.org/quote

     Parallel version (MPI & OpenMP), running on      12 processor cores
     Number of MPI processes:                 1
     Threads/MPI process:                    12

     MPI processes distributed on     1 nodes
     59694 MiB available memory on the printing compute node when the environment starts
 
     Reading input from aiida.in

     Current dimensions of program PWSCF are:
     Max number of different atomic species (ntypx) = 10
     Max number of k-points (npk) =  40000
     Max angular momentum in pseudopotentials (lmaxx) =  4
     Message from routine setup:
     using ibrav=0 with symmetry is DISCOURAGED, use correct ibrav instead
 
     Subspace diagonalization in iterative solution of the eigenvalue problem:
     a serial algorithm will be used

 
     G-vector sticks info
     --------------------
     sticks:   dense  smooth     PW     G-vecs:    dense   smooth      PW
     Sum        4545    2261    633               230605    81433   11981
 
     Using Slab Decomposition
 


     bravais-lattice index     =            0
     lattice parameter (alat)  =      12.6045  a.u.
     unit-cell volume          =    2002.5073 (a.u.)^3
     number of atoms/cell      =            8
     number of atomic types    =            1
     number of electrons       =        56.00
     number of Kohn-Sham states=           34
     kinetic-energy cutoff     =      45.0000  Ry
     charge density cutoff     =     360.0000  Ry
     scf convergence threshold =      1.6E-09
     mixing beta               =       0.2000
     number of iterations used =            8  plain     mixing
     Exchange-correlation= SLA  PW   PSX  PSC
                           (   1   4  10   8   0   0   0)

     GPU acceleration is ACTIVE.


     GPU used by master process:

        Device Number: 0
        Device name: Tesla P100-PCIE-16GB
        Compute capability : 60
        Ratio of single to double precision performance  : 2
        Memory Clock Rate (KHz): 715000
        Memory Bus Width (bits): 4096
        Peak Memory Bandwidth (GB/s): 732.16

     celldm(1)=  12.604473  celldm(2)=   0.000000  celldm(3)=   0.000000
     celldm(4)=   0.000000  celldm(5)=   0.000000  celldm(6)=   0.000000

     crystal axes: (cart. coord. in units of alat)
               a(1) = (   1.000000   0.000000   0.000000 )  
               a(2) = (   0.000000   1.000000   0.000000 )  
               a(3) = (   0.000000   0.000000   1.000000 )  

     reciprocal axes: (cart. coord. in units 2 pi/alat)
               b(1) = (  1.000000  0.000000  0.000000 )  
               b(2) = (  0.000000  1.000000  0.000000 )  
               b(3) = (  0.000000  0.000000  1.000000 )  


     PseudoPot. # 1 for F  read from file:
     ./pseudo/f_pbesol_v1.4.uspp.F.UPF
     MD5 check sum: d2815ecb49b17b99c5724ffd2f9bbd8d
     Pseudo is Ultrasoft, Zval =  7.0
     Generated by new atomic code, or converted to UPF format
     Using radial grid of  799 points,  4 beta functions with: 
                l(1) =   0
                l(2) =   0
                l(3) =   1
                l(4) =   1
     Q(r) pseudized with  8 coefficients,  rinner =    0.950   0.950   0.950


     atomic species   valence    mass     pseudopotential
        F              7.00    18.99840     F ( 1.00)

     Starting magnetic structure 
     atomic species   magnetization
        F            0.100

     48 Sym. Ops., with inversion, found (24 have fractional translation)


                                    s                        frac. trans.

      isym =  1     identity                                     

 cryst.   s( 1) = (     1          0          0      )
                  (     0          1          0      )
                  (     0          0          1      )

 cart.    s( 1) = (  1.0000000  0.0000000  0.0000000 )
                  (  0.0000000  1.0000000  0.0000000 )
                  (  0.0000000  0.0000000  1.0000000 )


      isym =  2     180 deg rotation - cart. axis [0,0,1]        

 cryst.   s( 2) = (    -1          0          0      )
                  (     0         -1          0      )
                  (     0          0          1      )

 cart.    s( 2) = ( -1.0000000  0.0000000  0.0000000 )
                  (  0.0000000 -1.0000000  0.0000000 )
                  (  0.0000000  0.0000000  1.0000000 )


      isym =  3     180 deg rotation - cart. axis [0,1,0]        

 cryst.   s( 3) = (    -1          0          0      )
                  (     0          1          0      )
                  (     0          0         -1      )

 cart.    s( 3) = ( -1.0000000  0.0000000  0.0000000 )
                  (  0.0000000  1.0000000  0.0000000 )
                  (  0.0000000  0.0000000 -1.0000000 )


      isym =  4     180 deg rotation - cart. axis [1,0,0]        

 cryst.   s( 4) = (     1          0          0      )
                  (     0         -1          0      )
                  (     0          0         -1      )

 cart.    s( 4) = (  1.0000000  0.0000000  0.0000000 )
                  (  0.0000000 -1.0000000  0.0000000 )
                  (  0.0000000  0.0000000 -1.0000000 )


      isym =  5     180 deg rotation - cart. axis [1,1,0]        

 cryst.   s( 5) = (     0          1          0      )    f =( -0.5000000 )
                  (     1          0          0      )       ( -0.5000000 )
                  (     0          0         -1      )       (  0.5000000 )

 cart.    s( 5) = (  0.0000000  1.0000000  0.0000000 )    f =( -0.5000000 )
                  (  1.0000000  0.0000000  0.0000000 )       ( -0.5000000 )
                  (  0.0000000  0.0000000 -1.0000000 )       (  0.5000000 )


      isym =  6     180 deg rotation - cart. axis [1,-1,0]       

 cryst.   s( 6) = (     0         -1          0      )    f =(  0.5000000 )
                  (    -1          0          0      )       (  0.5000000 )
                  (     0          0         -1      )       (  0.5000000 )

 cart.    s( 6) = (  0.0000000 -1.0000000  0.0000000 )    f =(  0.5000000 )
                  ( -1.0000000  0.0000000  0.0000000 )       (  0.5000000 )
                  (  0.0000000  0.0000000 -1.0000000 )       (  0.5000000 )


      isym =  7      90 deg rotation - cart. axis [0,0,-1]       

 cryst.   s( 7) = (     0         -1          0      )    f =( -0.5000000 )
                  (     1          0          0      )       (  0.5000000 )
                  (     0          0          1      )       (  0.5000000 )

 cart.    s( 7) = (  0.0000000  1.0000000  0.0000000 )    f =( -0.5000000 )
                  ( -1.0000000  0.0000000  0.0000000 )       (  0.5000000 )
                  (  0.0000000  0.0000000  1.0000000 )       (  0.5000000 )


      isym =  8      90 deg rotation - cart. axis [0,0,1]        

 cryst.   s( 8) = (     0          1          0      )    f =(  0.5000000 )
                  (    -1          0          0      )       ( -0.5000000 )
                  (     0          0          1      )       (  0.5000000 )

 cart.    s( 8) = (  0.0000000 -1.0000000  0.0000000 )    f =(  0.5000000 )
                  (  1.0000000  0.0000000  0.0000000 )       ( -0.5000000 )
                  (  0.0000000  0.0000000  1.0000000 )       (  0.5000000 )


      isym =  9     180 deg rotation - cart. axis [1,0,1]        

 cryst.   s( 9) = (     0          0          1      )    f =( -0.5000000 )
                  (     0         -1          0      )       (  0.5000000 )
                  (     1          0          0      )       (  0.5000000 )

 cart.    s( 9) = (  0.0000000  0.0000000  1.0000000 )    f =( -0.5000000 )
                  (  0.0000000 -1.0000000  0.0000000 )       (  0.5000000 )
                  (  1.0000000  0.0000000  0.0000000 )       (  0.5000000 )


      isym = 10     180 deg rotation - cart. axis [-1,0,1]       

 cryst.   s(10) = (     0          0         -1      )    f =(  0.5000000 )
                  (     0         -1          0      )       (  0.5000000 )
                  (    -1          0          0      )       (  0.5000000 )

 cart.    s(10) = (  0.0000000  0.0000000 -1.0000000 )    f =(  0.5000000 )
                  (  0.0000000 -1.0000000  0.0000000 )       (  0.5000000 )
                  ( -1.0000000  0.0000000  0.0000000 )       (  0.5000000 )


      isym = 11      90 deg rotation - cart. axis [0,1,0]        

 cryst.   s(11) = (     0          0         -1      )    f =( -0.5000000 )
                  (     0          1          0      )       ( -0.5000000 )
                  (     1          0          0      )       (  0.5000000 )

 cart.    s(11) = (  0.0000000  0.0000000  1.0000000 )    f =( -0.5000000 )
                  (  0.0000000  1.0000000  0.0000000 )       ( -0.5000000 )
                  ( -1.0000000  0.0000000  0.0000000 )       (  0.5000000 )


      isym = 12      90 deg rotation - cart. axis [0,-1,0]       

 cryst.   s(12) = (     0          0          1      )    f =(  0.5000000 )
                  (     0          1          0      )       ( -0.5000000 )
                  (    -1          0          0      )       (  0.5000000 )

 cart.    s(12) = (  0.0000000  0.0000000 -1.0000000 )    f =(  0.5000000 )
                  (  0.0000000  1.0000000  0.0000000 )       ( -0.5000000 )
                  (  1.0000000  0.0000000  0.0000000 )       (  0.5000000 )


      isym = 13     180 deg rotation - cart. axis [0,1,1]        

 cryst.   s(13) = (    -1          0          0      )    f =(  0.5000000 )
                  (     0          0          1      )       ( -0.5000000 )
                  (     0          1          0      )       (  0.5000000 )

 cart.    s(13) = ( -1.0000000  0.0000000  0.0000000 )    f =(  0.5000000 )
                  (  0.0000000  0.0000000  1.0000000 )       ( -0.5000000 )
                  (  0.0000000  1.0000000  0.0000000 )       (  0.5000000 )


      isym = 14     180 deg rotation - cart. axis [0,1,-1]       

 cryst.   s(14) = (    -1          0          0      )    f =(  0.5000000 )
                  (     0          0         -1      )       (  0.5000000 )
                  (     0         -1          0      )       (  0.5000000 )

 cart.    s(14) = ( -1.0000000  0.0000000  0.0000000 )    f =(  0.5000000 )
                  (  0.0000000  0.0000000 -1.0000000 )       (  0.5000000 )
                  (  0.0000000 -1.0000000  0.0000000 )       (  0.5000000 )


      isym = 15      90 deg rotation - cart. axis [-1,0,0]       

 cryst.   s(15) = (     1          0          0      )    f =( -0.5000000 )
                  (     0          0         -1      )       ( -0.5000000 )
                  (     0          1          0      )       (  0.5000000 )

 cart.    s(15) = (  1.0000000  0.0000000  0.0000000 )    f =( -0.5000000 )
                  (  0.0000000  0.0000000  1.0000000 )       ( -0.5000000 )
                  (  0.0000000 -1.0000000  0.0000000 )       (  0.5000000 )


      isym = 16      90 deg rotation - cart. axis [1,0,0]        

 cryst.   s(16) = (     1          0          0      )    f =( -0.5000000 )
                  (     0          0          1      )       (  0.5000000 )
                  (     0         -1          0      )       (  0.5000000 )

 cart.    s(16) = (  1.0000000  0.0000000  0.0000000 )    f =( -0.5000000 )
                  (  0.0000000  0.0000000 -1.0000000 )       (  0.5000000 )
                  (  0.0000000  1.0000000  0.0000000 )       (  0.5000000 )


      isym = 17     120 deg rotation - cart. axis [-1,-1,-1]     

 cryst.   s(17) = (     0          0          1      )
                  (     1          0          0      )
                  (     0          1          0      )

 cart.    s(17) = (  0.0000000  1.0000000  0.0000000 )
                  (  0.0000000  0.0000000  1.0000000 )
                  (  1.0000000  0.0000000  0.0000000 )


      isym = 18     120 deg rotation - cart. axis [-1,1,1]       

 cryst.   s(18) = (     0          0         -1      )
                  (    -1          0          0      )
                  (     0          1          0      )

 cart.    s(18) = (  0.0000000 -1.0000000  0.0000000 )
                  (  0.0000000  0.0000000  1.0000000 )
                  ( -1.0000000  0.0000000  0.0000000 )


      isym = 19     120 deg rotation - cart. axis [1,1,-1]       

 cryst.   s(19) = (     0          0         -1      )
                  (     1          0          0      )
                  (     0         -1          0      )

 cart.    s(19) = (  0.0000000  1.0000000  0.0000000 )
                  (  0.0000000  0.0000000 -1.0000000 )
                  ( -1.0000000  0.0000000  0.0000000 )


      isym = 20     120 deg rotation - cart. axis [1,-1,1]       

 cryst.   s(20) = (     0          0          1      )
                  (    -1          0          0      )
                  (     0         -1          0      )

 cart.    s(20) = (  0.0000000 -1.0000000  0.0000000 )
                  (  0.0000000  0.0000000 -1.0000000 )
                  (  1.0000000  0.0000000  0.0000000 )


      isym = 21     120 deg rotation - cart. axis [1,1,1]        

 cryst.   s(21) = (     0          1          0      )
                  (     0          0          1      )
                  (     1          0          0      )

 cart.    s(21) = (  0.0000000  0.0000000  1.0000000 )
                  (  1.0000000  0.0000000  0.0000000 )
                  (  0.0000000  1.0000000  0.0000000 )


      isym = 22     120 deg rotation - cart. axis [-1,1,-1]      

 cryst.   s(22) = (     0         -1          0      )
                  (     0          0         -1      )
                  (     1          0          0      )

 cart.    s(22) = (  0.0000000  0.0000000  1.0000000 )
                  ( -1.0000000  0.0000000  0.0000000 )
                  (  0.0000000 -1.0000000  0.0000000 )


      isym = 23     120 deg rotation - cart. axis [1,-1,-1]      

 cryst.   s(23) = (     0         -1          0      )
                  (     0          0          1      )
                  (    -1          0          0      )

 cart.    s(23) = (  0.0000000  0.0000000 -1.0000000 )
                  ( -1.0000000  0.0000000  0.0000000 )
                  (  0.0000000  1.0000000  0.0000000 )


      isym = 24     120 deg rotation - cart. axis [-1,-1,1]      

 cryst.   s(24) = (     0          1          0      )
                  (     0          0         -1      )
                  (    -1          0          0      )

 cart.    s(24) = (  0.0000000  0.0000000 -1.0000000 )
                  (  1.0000000  0.0000000  0.0000000 )
                  (  0.0000000 -1.0000000  0.0000000 )


      isym = 25     inversion                                    

 cryst.   s(25) = (    -1          0          0      )
                  (     0         -1          0      )
                  (     0          0         -1      )

 cart.    s(25) = ( -1.0000000  0.0000000  0.0000000 )
                  (  0.0000000 -1.0000000  0.0000000 )
                  (  0.0000000  0.0000000 -1.0000000 )


      isym = 26     inv. 180 deg rotation - cart. axis [0,0,1]   

 cryst.   s(26) = (     1          0          0      )
                  (     0          1          0      )
                  (     0          0         -1      )

 cart.    s(26) = (  1.0000000  0.0000000  0.0000000 )
                  (  0.0000000  1.0000000  0.0000000 )
                  (  0.0000000  0.0000000 -1.0000000 )


      isym = 27     inv. 180 deg rotation - cart. axis [0,1,0]   

 cryst.   s(27) = (     1          0          0      )
                  (     0         -1          0      )
                  (     0          0          1      )

 cart.    s(27) = (  1.0000000  0.0000000  0.0000000 )
                  (  0.0000000 -1.0000000  0.0000000 )
                  (  0.0000000  0.0000000  1.0000000 )


      isym = 28     inv. 180 deg rotation - cart. axis [1,0,0]   

 cryst.   s(28) = (    -1          0          0      )
                  (     0          1          0      )
                  (     0          0          1      )

 cart.    s(28) = ( -1.0000000  0.0000000  0.0000000 )
                  (  0.0000000  1.0000000  0.0000000 )
                  (  0.0000000  0.0000000  1.0000000 )


      isym = 29     inv. 180 deg rotation - cart. axis [1,1,0]   

 cryst.   s(29) = (     0         -1          0      )    f =(  0.5000000 )
                  (    -1          0          0      )       (  0.5000000 )
                  (     0          0          1      )       (  0.5000000 )

 cart.    s(29) = (  0.0000000 -1.0000000  0.0000000 )    f =(  0.5000000 )
                  ( -1.0000000  0.0000000  0.0000000 )       (  0.5000000 )
                  (  0.0000000  0.0000000  1.0000000 )       (  0.5000000 )


      isym = 30     inv. 180 deg rotation - cart. axis [1,-1,0]  

 cryst.   s(30) = (     0          1          0      )    f =( -0.5000000 )
                  (     1          0          0      )       ( -0.5000000 )
                  (     0          0          1      )       (  0.5000000 )

 cart.    s(30) = (  0.0000000  1.0000000  0.0000000 )    f =( -0.5000000 )
                  (  1.0000000  0.0000000  0.0000000 )       ( -0.5000000 )
                  (  0.0000000  0.0000000  1.0000000 )       (  0.5000000 )


      isym = 31     inv.  90 deg rotation - cart. axis [0,0,-1]  

 cryst.   s(31) = (     0          1          0      )    f =(  0.5000000 )
                  (    -1          0          0      )       ( -0.5000000 )
                  (     0          0         -1      )       (  0.5000000 )

 cart.    s(31) = (  0.0000000 -1.0000000  0.0000000 )    f =(  0.5000000 )
                  (  1.0000000  0.0000000  0.0000000 )       ( -0.5000000 )
                  (  0.0000000  0.0000000 -1.0000000 )       (  0.5000000 )


      isym = 32     inv.  90 deg rotation - cart. axis [0,0,1]   

 cryst.   s(32) = (     0         -1          0      )    f =( -0.5000000 )
                  (     1          0          0      )       (  0.5000000 )
                  (     0          0         -1      )       (  0.5000000 )

 cart.    s(32) = (  0.0000000  1.0000000  0.0000000 )    f =( -0.5000000 )
                  ( -1.0000000  0.0000000  0.0000000 )       (  0.5000000 )
                  (  0.0000000  0.0000000 -1.0000000 )       (  0.5000000 )


      isym = 33     inv. 180 deg rotation - cart. axis [1,0,1]   

 cryst.   s(33) = (     0          0         -1      )    f =(  0.5000000 )
                  (     0          1          0      )       ( -0.5000000 )
                  (    -1          0          0      )       (  0.5000000 )

 cart.    s(33) = (  0.0000000  0.0000000 -1.0000000 )    f =(  0.5000000 )
                  (  0.0000000  1.0000000  0.0000000 )       ( -0.5000000 )
                  ( -1.0000000  0.0000000  0.0000000 )       (  0.5000000 )


      isym = 34     inv. 180 deg rotation - cart. axis [-1,0,1]  

 cryst.   s(34) = (     0          0          1      )    f =( -0.5000000 )
                  (     0          1          0      )       ( -0.5000000 )
                  (     1          0          0      )       (  0.5000000 )

 cart.    s(34) = (  0.0000000  0.0000000  1.0000000 )    f =( -0.5000000 )
                  (  0.0000000  1.0000000  0.0000000 )       ( -0.5000000 )
                  (  1.0000000  0.0000000  0.0000000 )       (  0.5000000 )


      isym = 35     inv.  90 deg rotation - cart. axis [0,1,0]   

 cryst.   s(35) = (     0          0          1      )    f =(  0.5000000 )
                  (     0         -1          0      )       (  0.5000000 )
                  (    -1          0          0      )       (  0.5000000 )

 cart.    s(35) = (  0.0000000  0.0000000 -1.0000000 )    f =(  0.5000000 )
                  (  0.0000000 -1.0000000  0.0000000 )       (  0.5000000 )
                  (  1.0000000  0.0000000  0.0000000 )       (  0.5000000 )


      isym = 36     inv.  90 deg rotation - cart. axis [0,-1,0]  

 cryst.   s(36) = (     0          0         -1      )    f =( -0.5000000 )
                  (     0         -1          0      )       (  0.5000000 )
                  (     1          0          0      )       (  0.5000000 )

 cart.    s(36) = (  0.0000000  0.0000000  1.0000000 )    f =( -0.5000000 )
                  (  0.0000000 -1.0000000  0.0000000 )       (  0.5000000 )
                  ( -1.0000000  0.0000000  0.0000000 )       (  0.5000000 )


      isym = 37     inv. 180 deg rotation - cart. axis [0,1,1]   

 cryst.   s(37) = (     1          0          0      )    f =( -0.5000000 )
                  (     0          0         -1      )       (  0.5000000 )
                  (     0         -1          0      )       (  0.5000000 )

 cart.    s(37) = (  1.0000000  0.0000000  0.0000000 )    f =( -0.5000000 )
                  (  0.0000000  0.0000000 -1.0000000 )       (  0.5000000 )
                  (  0.0000000 -1.0000000  0.0000000 )       (  0.5000000 )


      isym = 38     inv. 180 deg rotation - cart. axis [0,1,-1]  

 cryst.   s(38) = (     1          0          0      )    f =( -0.5000000 )
                  (     0          0          1      )       ( -0.5000000 )
                  (     0          1          0      )       (  0.5000000 )

 cart.    s(38) = (  1.0000000  0.0000000  0.0000000 )    f =( -0.5000000 )
                  (  0.0000000  0.0000000  1.0000000 )       ( -0.5000000 )
                  (  0.0000000  1.0000000  0.0000000 )       (  0.5000000 )


      isym = 39     inv.  90 deg rotation - cart. axis [-1,0,0]  

 cryst.   s(39) = (    -1          0          0      )    f =(  0.5000000 )
                  (     0          0          1      )       (  0.5000000 )
                  (     0         -1          0      )       (  0.5000000 )

 cart.    s(39) = ( -1.0000000  0.0000000  0.0000000 )    f =(  0.5000000 )
                  (  0.0000000  0.0000000 -1.0000000 )       (  0.5000000 )
                  (  0.0000000  1.0000000  0.0000000 )       (  0.5000000 )


      isym = 40     inv.  90 deg rotation - cart. axis [1,0,0]   

 cryst.   s(40) = (    -1          0          0      )    f =(  0.5000000 )
                  (     0          0         -1      )       ( -0.5000000 )
                  (     0          1          0      )       (  0.5000000 )

 cart.    s(40) = ( -1.0000000  0.0000000  0.0000000 )    f =(  0.5000000 )
                  (  0.0000000  0.0000000  1.0000000 )       ( -0.5000000 )
                  (  0.0000000 -1.0000000  0.0000000 )       (  0.5000000 )


      isym = 41     inv. 120 deg rotation - cart. axis [-1,-1,-1]

 cryst.   s(41) = (     0          0         -1      )
                  (    -1          0          0      )
                  (     0         -1          0      )

 cart.    s(41) = (  0.0000000 -1.0000000  0.0000000 )
                  (  0.0000000  0.0000000 -1.0000000 )
                  ( -1.0000000  0.0000000  0.0000000 )


      isym = 42     inv. 120 deg rotation - cart. axis [-1,1,1]  

 cryst.   s(42) = (     0          0          1      )
                  (     1          0          0      )
                  (     0         -1          0      )

 cart.    s(42) = (  0.0000000  1.0000000  0.0000000 )
                  (  0.0000000  0.0000000 -1.0000000 )
                  (  1.0000000  0.0000000  0.0000000 )


      isym = 43     inv. 120 deg rotation - cart. axis [1,1,-1]  

 cryst.   s(43) = (     0          0          1      )
                  (    -1          0          0      )
                  (     0          1          0      )

 cart.    s(43) = (  0.0000000 -1.0000000  0.0000000 )
                  (  0.0000000  0.0000000  1.0000000 )
                  (  1.0000000  0.0000000  0.0000000 )


      isym = 44     inv. 120 deg rotation - cart. axis [1,-1,1]  

 cryst.   s(44) = (     0          0         -1      )
                  (     1          0          0      )
                  (     0          1          0      )

 cart.    s(44) = (  0.0000000  1.0000000  0.0000000 )
                  (  0.0000000  0.0000000  1.0000000 )
                  ( -1.0000000  0.0000000  0.0000000 )


      isym = 45     inv. 120 deg rotation - cart. axis [1,1,1]   

 cryst.   s(45) = (     0         -1          0      )
                  (     0          0         -1      )
                  (    -1          0          0      )

 cart.    s(45) = (  0.0000000  0.0000000 -1.0000000 )
                  ( -1.0000000  0.0000000  0.0000000 )
                  (  0.0000000 -1.0000000  0.0000000 )


      isym = 46     inv. 120 deg rotation - cart. axis [-1,1,-1] 

 cryst.   s(46) = (     0          1          0      )
                  (     0          0          1      )
                  (    -1          0          0      )

 cart.    s(46) = (  0.0000000  0.0000000 -1.0000000 )
                  (  1.0000000  0.0000000  0.0000000 )
                  (  0.0000000  1.0000000  0.0000000 )


      isym = 47     inv. 120 deg rotation - cart. axis [1,-1,-1] 

 cryst.   s(47) = (     0          1          0      )
                  (     0          0         -1      )
                  (     1          0          0      )

 cart.    s(47) = (  0.0000000  0.0000000  1.0000000 )
                  (  1.0000000  0.0000000  0.0000000 )
                  (  0.0000000 -1.0000000  0.0000000 )


      isym = 48     inv. 120 deg rotation - cart. axis [-1,-1,1] 

 cryst.   s(48) = (     0         -1          0      )
                  (     0          0          1      )
                  (     1          0          0      )

 cart.    s(48) = (  0.0000000  0.0000000  1.0000000 )
                  ( -1.0000000  0.0000000  0.0000000 )
                  (  0.0000000  1.0000000  0.0000000 )


   Cartesian axes

     site n.     atom                  positions (alat units)
         1           F   tau(   1) = (   0.2500000   0.0000000   0.5000000  )
         2           F   tau(   2) = (   0.7500000   0.0000000   0.5000000  )
         3           F   tau(   3) = (   0.5000000   0.2500000   0.0000000  )
         4           F   tau(   4) = (   0.5000000   0.7500000   0.0000000  )
         5           F   tau(   5) = (   0.0000000   0.5000000   0.7500000  )
         6           F   tau(   6) = (   0.0000000   0.5000000   0.2500000  )
         7           F   tau(   7) = (   0.5000000   0.5000000   0.5000000  )
         8           F   tau(   8) = (   0.0000000   0.0000000   0.0000000  )

   Crystallographic axes

     site n.     atom                  positions (cryst. coord.)
         1           F   tau(   1) = (  0.2500000  0.0000000  0.5000000  )
         2           F   tau(   2) = (  0.7500000  0.0000000  0.5000000  )
         3           F   tau(   3) = (  0.5000000  0.2500000  0.0000000  )
         4           F   tau(   4) = (  0.5000000  0.7500000  0.0000000  )
         5           F   tau(   5) = (  0.0000000  0.5000000  0.7500000  )
         6           F   tau(   6) = (  0.0000000  0.5000000  0.2500000  )
         7           F   tau(   7) = (  0.5000000  0.5000000  0.5000000  )
         8           F   tau(   8) = (  0.0000000  0.0000000  0.0000000  )

     number of k points=    20  Marzari-Vanderbilt smearing, width (Ry)=  0.0100
                       cart. coord. in units 2pi/alat
        k(    1) = (   0.0000000   0.0000000   0.0000000), wk =   0.0029155
        k(    2) = (   0.0000000   0.0000000   0.1428571), wk =   0.0174927
        k(    3) = (   0.0000000   0.0000000   0.2857143), wk =   0.0174927
        k(    4) = (   0.0000000   0.0000000   0.4285714), wk =   0.0174927
        k(    5) = (   0.0000000   0.1428571   0.1428571), wk =   0.0349854
        k(    6) = (   0.0000000   0.1428571   0.2857143), wk =   0.0699708
        k(    7) = (   0.0000000   0.1428571   0.4285714), wk =   0.0699708
        k(    8) = (   0.0000000   0.2857143   0.2857143), wk =   0.0349854
        k(    9) = (   0.0000000   0.2857143   0.4285714), wk =   0.0699708
        k(   10) = (   0.0000000   0.4285714   0.4285714), wk =   0.0349854
        k(   11) = (   0.1428571   0.1428571   0.1428571), wk =   0.0233236
        k(   12) = (   0.1428571   0.1428571   0.2857143), wk =   0.0699708
        k(   13) = (   0.1428571   0.1428571   0.4285714), wk =   0.0699708
        k(   14) = (   0.1428571   0.2857143   0.2857143), wk =   0.0699708
        k(   15) = (   0.1428571   0.2857143   0.4285714), wk =   0.1399417
        k(   16) = (   0.1428571   0.4285714   0.4285714), wk =   0.0699708
        k(   17) = (   0.2857143   0.2857143   0.2857143), wk =   0.0233236
        k(   18) = (   0.2857143   0.2857143   0.4285714), wk =   0.0699708
        k(   19) = (   0.2857143   0.4285714   0.4285714), wk =   0.0699708
        k(   20) = (   0.4285714   0.4285714   0.4285714), wk =   0.0233236

                       cryst. coord.
        k(    1) = (   0.0000000   0.0000000   0.0000000), wk =   0.0029155
        k(    2) = (   0.0000000   0.0000000   0.1428571), wk =   0.0174927
        k(    3) = (   0.0000000   0.0000000   0.2857143), wk =   0.0174927
        k(    4) = (   0.0000000   0.0000000   0.4285714), wk =   0.0174927
        k(    5) = (   0.0000000   0.1428571   0.1428571), wk =   0.0349854
        k(    6) = (   0.0000000   0.1428571   0.2857143), wk =   0.0699708
        k(    7) = (   0.0000000   0.1428571   0.4285714), wk =   0.0699708
        k(    8) = (   0.0000000   0.2857143   0.2857143), wk =   0.0349854
        k(    9) = (   0.0000000   0.2857143   0.4285714), wk =   0.0699708
        k(   10) = (   0.0000000   0.4285714   0.4285714), wk =   0.0349854
        k(   11) = (   0.1428571   0.1428571   0.1428571), wk =   0.0233236
        k(   12) = (   0.1428571   0.1428571   0.2857143), wk =   0.0699708
        k(   13) = (   0.1428571   0.1428571   0.4285714), wk =   0.0699708
        k(   14) = (   0.1428571   0.2857143   0.2857143), wk =   0.0699708
        k(   15) = (   0.1428571   0.2857143   0.4285714), wk =   0.1399417
        k(   16) = (   0.1428571   0.4285714   0.4285714), wk =   0.0699708
        k(   17) = (   0.2857143   0.2857143   0.2857143), wk =   0.0233236
        k(   18) = (   0.2857143   0.2857143   0.4285714), wk =   0.0699708
        k(   19) = (   0.2857143   0.4285714   0.4285714), wk =   0.0699708
        k(   20) = (   0.4285714   0.4285714   0.4285714), wk =   0.0233236

     Dense  grid:   230605 G-vectors     FFT dimensions: (  80,  80,  80)

     Smooth grid:    81433 G-vectors     FFT dimensions: (  54,  54,  54)

     Dynamical RAM for                 wfc:       5.30 MB

     Dynamical RAM for     wfc (w. buffer):     217.13 MB

     Dynamical RAM for           str. fact:       3.52 MB

     Dynamical RAM for           local pot:       0.00 MB

     Dynamical RAM for          nlocal pot:       9.97 MB

     Dynamical RAM for                qrad:       0.44 MB

     Dynamical RAM for          rho,v,vnew:      44.55 MB

     Dynamical RAM for               rhoin:      14.85 MB

     Dynamical RAM for            rho*nmix:     112.60 MB

     Dynamical RAM for           G-vectors:      13.82 MB

     Dynamical RAM for          h,s,v(r/c):       0.21 MB

     Dynamical RAM for          <psi|beta>:       0.03 MB

     Dynamical RAM for                 psi:      10.59 MB

     Dynamical RAM for                hpsi:      10.59 MB

     Dynamical RAM for                spsi:      10.59 MB

     Dynamical RAM for      wfcinit/wfcrot:      10.62 MB

     Dynamical RAM for           addusdens:     182.98 MB

     Dynamical RAM for          addusforce:     232.25 MB

     Dynamical RAM for         addusstress:     181.22 MB

     Estimated static dynamical RAM per process >     334.75 MB

     Estimated max dynamical RAM per process >     679.60 MB

     Atomic positions and unit cell read from directory:
     ./out/aiida.save/
 
     Generating pointlists ...
     new r_m :   0.2062 (alat units)  2.5997 (a.u.) for type    1

     The initial density is read from file :
     ./out/aiida.save/charge-density

     Starting wfcs from file

     total cpu time spent up to now is        1.6 secs

     per-process dynamical memory:   476.5 Mb

     Self-consistent Calculation
[tb_dev] Currently allocated     6.10E-05 Mbytes, locked:    0 /   2
[tb_pin] Currently allocated     0.00E+00 Mbytes, locked:    0 /   0

     iteration #  1     ecut=    45.00 Ry     beta= 0.20
     Davidson diagonalization with overlap

---- Real-time Memory Report at c_bands before calling an iterative solver
           604 MiB given to the printing process from OS
           478 MiB allocation reported by mallinfo(arena+hblkhd)
         58975 MiB available memory on the node where the printing process lives
     GPU memory used/free/total (MiB): 758 / 15522 / 16280
------------------
     ethr =  1.00E-05,  avg # of iterations =  2.0

     total cpu time spent up to now is        4.1 secs

     total energy              =    -386.02183590 Ry
     estimated scf accuracy    <       0.05513124 Ry

     total magnetization       =     8.00 Bohr mag/cell
     absolute magnetization    =     8.08 Bohr mag/cell
[tb_dev] Currently allocated     1.49E+00 Mbytes, locked:    0 /   6
[tb_pin] Currently allocated     0.00E+00 Mbytes, locked:    0 /   0

     iteration #  2     ecut=    45.00 Ry     beta= 0.20
     Davidson diagonalization with overlap

---- Real-time Memory Report at c_bands before calling an iterative solver
          1233 MiB given to the printing process from OS
          1019 MiB allocation reported by mallinfo(arena+hblkhd)
         57770 MiB available memory on the node where the printing process lives
     GPU memory used/free/total (MiB): 1454 / 14826 / 16280
------------------
     ethr =  9.84E-05,  avg # of iterations =  2.0

     total cpu time spent up to now is        5.5 secs

     total energy              =    -385.99150686 Ry
     estimated scf accuracy    <       6.58057392 Ry

     total magnetization       =     8.00 Bohr mag/cell
     absolute magnetization    =     8.45 Bohr mag/cell
[tb_dev] Currently allocated     1.49E+00 Mbytes, locked:    0 /   6
[tb_pin] Currently allocated     0.00E+00 Mbytes, locked:    0 /   0

     iteration #  3     ecut=    45.00 Ry     beta= 0.20
     Davidson diagonalization with overlap

---- Real-time Memory Report at c_bands before calling an iterative solver
          1241 MiB given to the printing process from OS
          1027 MiB allocation reported by mallinfo(arena+hblkhd)
         57762 MiB available memory on the node where the printing process lives
     GPU memory used/free/total (MiB): 1462 / 14818 / 16280
------------------
     ethr =  9.84E-05,  avg # of iterations =  1.2

     total cpu time spent up to now is        6.7 secs

     total energy              =    -386.03862245 Ry
     estimated scf accuracy    <       0.04576965 Ry

     total magnetization       =     8.00 Bohr mag/cell
     absolute magnetization    =     8.10 Bohr mag/cell
[tb_dev] Currently allocated     1.49E+00 Mbytes, locked:    0 /   6
[tb_pin] Currently allocated     0.00E+00 Mbytes, locked:    0 /   0

     iteration #  4     ecut=    45.00 Ry     beta= 0.20
     Davidson diagonalization with overlap

---- Real-time Memory Report at c_bands before calling an iterative solver
          1246 MiB given to the printing process from OS
          1032 MiB allocation reported by mallinfo(arena+hblkhd)
         57754 MiB available memory on the node where the printing process lives
     GPU memory used/free/total (MiB): 1462 / 14818 / 16280
------------------
     ethr =  8.17E-05,  avg # of iterations =  1.0

     total cpu time spent up to now is        7.9 secs

     total energy              =    -386.04130561 Ry
     estimated scf accuracy    <       0.47070692 Ry

     total magnetization       =     8.00 Bohr mag/cell
     absolute magnetization    =     8.15 Bohr mag/cell
[tb_dev] Currently allocated     1.49E+00 Mbytes, locked:    0 /   6
[tb_pin] Currently allocated     0.00E+00 Mbytes, locked:    0 /   0

     iteration #  5     ecut=    45.00 Ry     beta= 0.20
     Davidson diagonalization with overlap

---- Real-time Memory Report at c_bands before calling an iterative solver
          1249 MiB given to the printing process from OS
          1034 MiB allocation reported by mallinfo(arena+hblkhd)
         57759 MiB available memory on the node where the printing process lives
     GPU memory used/free/total (MiB): 1462 / 14818 / 16280
------------------
     ethr =  8.17E-05,  avg # of iterations =  1.0

     total cpu time spent up to now is        9.1 secs

     total energy              =    -386.04159751 Ry
     estimated scf accuracy    <       0.57195487 Ry

     total magnetization       =     8.00 Bohr mag/cell
     absolute magnetization    =     8.21 Bohr mag/cell
[tb_dev] Currently allocated     1.49E+00 Mbytes, locked:    0 /   6
[tb_pin] Currently allocated     0.00E+00 Mbytes, locked:    0 /   0

     iteration #  6     ecut=    45.00 Ry     beta= 0.20
     Davidson diagonalization with overlap

---- Real-time Memory Report at c_bands before calling an iterative solver
          1257 MiB given to the printing process from OS
          1041 MiB allocation reported by mallinfo(arena+hblkhd)
         57752 MiB available memory on the node where the printing process lives
     GPU memory used/free/total (MiB): 1462 / 14818 / 16280
------------------
     ethr =  8.17E-05,  avg # of iterations =  1.0

     total cpu time spent up to now is       10.4 secs

     total energy              =    -386.03475332 Ry
     estimated scf accuracy    <       0.42759585 Ry

     total magnetization       =     8.00 Bohr mag/cell
     absolute magnetization    =     8.22 Bohr mag/cell
[tb_dev] Currently allocated     1.49E+00 Mbytes, locked:    0 /   6
[tb_pin] Currently allocated     0.00E+00 Mbytes, locked:    0 /   0

     iteration #  7     ecut=    45.00 Ry     beta= 0.20
     Davidson diagonalization with overlap

---- Real-time Memory Report at c_bands before calling an iterative solver
          1264 MiB given to the printing process from OS
          1049 MiB allocation reported by mallinfo(arena+hblkhd)
         57747 MiB available memory on the node where the printing process lives
     GPU memory used/free/total (MiB): 1462 / 14818 / 16280
------------------
     ethr =  8.17E-05,  avg # of iterations =  1.0

     total cpu time spent up to now is       11.6 secs

     total energy              =    -386.03693312 Ry
     estimated scf accuracy    <       0.08620370 Ry

     total magnetization       =     8.00 Bohr mag/cell
     absolute magnetization    =     8.10 Bohr mag/cell
[tb_dev] Currently allocated     1.49E+00 Mbytes, locked:    0 /   6
[tb_pin] Currently allocated     0.00E+00 Mbytes, locked:    0 /   0

     iteration #  8     ecut=    45.00 Ry     beta= 0.20
     Davidson diagonalization with overlap

---- Real-time Memory Report at c_bands before calling an iterative solver
          1266 MiB given to the printing process from OS
          1051 MiB allocation reported by mallinfo(arena+hblkhd)
         57745 MiB available memory on the node where the printing process lives
     GPU memory used/free/total (MiB): 1462 / 14818 / 16280
------------------
     ethr =  8.17E-05,  avg # of iterations =  1.0

     total cpu time spent up to now is       12.9 secs

     total energy              =    -386.02575899 Ry
     estimated scf accuracy    <       0.10622895 Ry

     total magnetization       =     8.00 Bohr mag/cell
     absolute magnetization    =     8.10 Bohr mag/cell
[tb_dev] Currently allocated     1.49E+00 Mbytes, locked:    0 /   6
[tb_pin] Currently allocated     0.00E+00 Mbytes, locked:    0 /   0

     iteration #  9     ecut=    45.00 Ry     beta= 0.20
     Davidson diagonalization with overlap

---- Real-time Memory Report at c_bands before calling an iterative solver
          1277 MiB given to the printing process from OS
          1062 MiB allocation reported by mallinfo(arena+hblkhd)
         57736 MiB available memory on the node where the printing process lives
     GPU memory used/free/total (MiB): 1462 / 14818 / 16280
------------------
     ethr =  8.17E-05,  avg # of iterations =  1.5

     total cpu time spent up to now is       14.3 secs

     total energy              =    -386.00978969 Ry
     estimated scf accuracy    <       0.09666625 Ry

     total magnetization       =     8.00 Bohr mag/cell
     absolute magnetization    =     8.08 Bohr mag/cell
[tb_dev] Currently allocated     1.49E+00 Mbytes, locked:    0 /   6
[tb_pin] Currently allocated     0.00E+00 Mbytes, locked:    0 /   0

     iteration # 10     ecut=    45.00 Ry     beta= 0.20
     Davidson diagonalization with overlap

---- Real-time Memory Report at c_bands before calling an iterative solver
          1279 MiB given to the printing process from OS
          1064 MiB allocation reported by mallinfo(arena+hblkhd)
         57732 MiB available memory on the node where the printing process lives
     GPU memory used/free/total (MiB): 1462 / 14818 / 16280
------------------
     ethr =  8.17E-05,  avg # of iterations =  1.5

     total cpu time spent up to now is       15.7 secs

     total energy              =    -385.99400035 Ry
     estimated scf accuracy    <       1.32875170 Ry

     total magnetization       =     8.00 Bohr mag/cell
     absolute magnetization    =     8.23 Bohr mag/cell
[tb_dev] Currently allocated     1.49E+00 Mbytes, locked:    0 /   6
[tb_pin] Currently allocated     0.00E+00 Mbytes, locked:    0 /   0

     iteration # 11     ecut=    45.00 Ry     beta= 0.20
     Davidson diagonalization with overlap

---- Real-time Memory Report at c_bands before calling an iterative solver
          1279 MiB given to the printing process from OS
          1064 MiB allocation reported by mallinfo(arena+hblkhd)
         57732 MiB available memory on the node where the printing process lives
     GPU memory used/free/total (MiB): 1488 / 14792 / 16280
------------------
     ethr =  8.17E-05,  avg # of iterations =  1.5

     total cpu time spent up to now is       17.1 secs

     total energy              =    -386.02860358 Ry
     estimated scf accuracy    <       0.11817386 Ry

     total magnetization       =     8.00 Bohr mag/cell
     absolute magnetization    =     8.08 Bohr mag/cell
[tb_dev] Currently allocated     1.49E+00 Mbytes, locked:    0 /   6
[tb_pin] Currently allocated     0.00E+00 Mbytes, locked:    0 /   0

     iteration # 12     ecut=    45.00 Ry     beta= 0.20
     Davidson diagonalization with overlap

---- Real-time Memory Report at c_bands before calling an iterative solver
          1282 MiB given to the printing process from OS
          1064 MiB allocation reported by mallinfo(arena+hblkhd)
         57732 MiB available memory on the node where the printing process lives
     GPU memory used/free/total (MiB): 1488 / 14792 / 16280
------------------
     ethr =  8.17E-05,  avg # of iterations =  1.5

     total cpu time spent up to now is       18.4 secs

     total energy              =    -386.03890440 Ry
     estimated scf accuracy    <       0.02254107 Ry

     total magnetization       =     8.00 Bohr mag/cell
     absolute magnetization    =     8.09 Bohr mag/cell
[tb_dev] Currently allocated     1.49E+00 Mbytes, locked:    0 /   6
[tb_pin] Currently allocated     0.00E+00 Mbytes, locked:    0 /   0

     iteration # 13     ecut=    45.00 Ry     beta= 0.20
     Davidson diagonalization with overlap

---- Real-time Memory Report at c_bands before calling an iterative solver
          1282 MiB given to the printing process from OS
          1064 MiB allocation reported by mallinfo(arena+hblkhd)
         57733 MiB available memory on the node where the printing process lives
     GPU memory used/free/total (MiB): 1488 / 14792 / 16280
------------------
     ethr =  4.03E-05,  avg # of iterations =  1.0

     total cpu time spent up to now is       19.6 secs

     total energy              =    -386.03846998 Ry
     estimated scf accuracy    <       0.03429835 Ry

     total magnetization       =     8.00 Bohr mag/cell
     absolute magnetization    =     8.11 Bohr mag/cell
[tb_dev] Currently allocated     1.49E+00 Mbytes, locked:    0 /   6
[tb_pin] Currently allocated     0.00E+00 Mbytes, locked:    0 /   0

     iteration # 14     ecut=    45.00 Ry     beta= 0.20
     Davidson diagonalization with overlap

---- Real-time Memory Report at c_bands before calling an iterative solver
          1282 MiB given to the printing process from OS
          1064 MiB allocation reported by mallinfo(arena+hblkhd)
         57734 MiB available memory on the node where the printing process lives
     GPU memory used/free/total (MiB): 1488 / 14792 / 16280
------------------
     ethr =  4.03E-05,  avg # of iterations =  1.0

     total cpu time spent up to now is       20.8 secs

     total energy              =    -386.03120364 Ry
     estimated scf accuracy    <       0.02478292 Ry

     total magnetization       =     8.00 Bohr mag/cell
     absolute magnetization    =     8.10 Bohr mag/cell
[tb_dev] Currently allocated     1.49E+00 Mbytes, locked:    0 /   6
[tb_pin] Currently allocated     0.00E+00 Mbytes, locked:    0 /   0

     iteration # 15     ecut=    45.00 Ry     beta= 0.20
     Davidson diagonalization with overlap

---- Real-time Memory Report at c_bands before calling an iterative solver
          1282 MiB given to the printing process from OS
          1064 MiB allocation reported by mallinfo(arena+hblkhd)
         57734 MiB available memory on the node where the printing process lives
     GPU memory used/free/total (MiB): 1488 / 14792 / 16280
------------------
     ethr =  4.03E-05,  avg # of iterations =  1.5

     total cpu time spent up to now is       22.2 secs

     total energy              =    -386.03514283 Ry
     estimated scf accuracy    <       0.01513180 Ry

     total magnetization       =     8.00 Bohr mag/cell
     absolute magnetization    =     8.08 Bohr mag/cell
[tb_dev] Currently allocated     1.49E+00 Mbytes, locked:    0 /   6
[tb_pin] Currently allocated     0.00E+00 Mbytes, locked:    0 /   0

     iteration # 16     ecut=    45.00 Ry     beta= 0.20
     Davidson diagonalization with overlap

---- Real-time Memory Report at c_bands before calling an iterative solver
          1284 MiB given to the printing process from OS
          1064 MiB allocation reported by mallinfo(arena+hblkhd)
         57734 MiB available memory on the node where the printing process lives
     GPU memory used/free/total (MiB): 1488 / 14792 / 16280
------------------
     ethr =  2.70E-05,  avg # of iterations =  1.0

     total cpu time spent up to now is       23.4 secs

     total energy              =    -386.03575652 Ry
     estimated scf accuracy    <       0.02122393 Ry

     total magnetization       =     8.00 Bohr mag/cell
     absolute magnetization    =     8.07 Bohr mag/cell
[tb_dev] Currently allocated     1.49E+00 Mbytes, locked:    0 /   6
[tb_pin] Currently allocated     0.00E+00 Mbytes, locked:    0 /   0

     iteration # 17     ecut=    45.00 Ry     beta= 0.20
     Davidson diagonalization with overlap

---- Real-time Memory Report at c_bands before calling an iterative solver
          1284 MiB given to the printing process from OS
          1064 MiB allocation reported by mallinfo(arena+hblkhd)
         57735 MiB available memory on the node where the printing process lives
     GPU memory used/free/total (MiB): 1488 / 14792 / 16280
------------------
     ethr =  2.70E-05,  avg # of iterations =  1.0

     total cpu time spent up to now is       24.6 secs

     total energy              =    -386.03561340 Ry
     estimated scf accuracy    <       0.02077440 Ry

     total magnetization       =     8.00 Bohr mag/cell
     absolute magnetization    =     8.07 Bohr mag/cell
[tb_dev] Currently allocated     1.49E+00 Mbytes, locked:    0 /   6
[tb_pin] Currently allocated     0.00E+00 Mbytes, locked:    0 /   0

     iteration # 18     ecut=    45.00 Ry     beta= 0.20
     Davidson diagonalization with overlap

---- Real-time Memory Report at c_bands before calling an iterative solver
          1284 MiB given to the printing process from OS
          1064 MiB allocation reported by mallinfo(arena+hblkhd)
         57735 MiB available memory on the node where the printing process lives
     GPU memory used/free/total (MiB): 1488 / 14792 / 16280
------------------
     ethr =  2.70E-05,  avg # of iterations =  1.0

     total cpu time spent up to now is       25.9 secs

     total energy              =    -386.03565462 Ry
     estimated scf accuracy    <       0.02562726 Ry

     total magnetization       =     8.00 Bohr mag/cell
     absolute magnetization    =     8.07 Bohr mag/cell
[tb_dev] Currently allocated     1.49E+00 Mbytes, locked:    0 /   6
[tb_pin] Currently allocated     0.00E+00 Mbytes, locked:    0 /   0

     iteration # 19     ecut=    45.00 Ry     beta= 0.20
     Davidson diagonalization with overlap

---- Real-time Memory Report at c_bands before calling an iterative solver
          1284 MiB given to the printing process from OS
          1064 MiB allocation reported by mallinfo(arena+hblkhd)
         57735 MiB available memory on the node where the printing process lives
     GPU memory used/free/total (MiB): 1488 / 14792 / 16280
------------------
     ethr =  2.70E-05,  avg # of iterations =  1.0

     total cpu time spent up to now is       27.2 secs

     total energy              =    -386.03546838 Ry
     estimated scf accuracy    <       0.02218113 Ry

     total magnetization       =     8.00 Bohr mag/cell
     absolute magnetization    =     8.07 Bohr mag/cell
[tb_dev] Currently allocated     1.49E+00 Mbytes, locked:    0 /   6
[tb_pin] Currently allocated     0.00E+00 Mbytes, locked:    0 /   0

     iteration # 20     ecut=    45.00 Ry     beta= 0.20
     Davidson diagonalization with overlap

---- Real-time Memory Report at c_bands before calling an iterative solver
          1284 MiB given to the printing process from OS
          1064 MiB allocation reported by mallinfo(arena+hblkhd)
         57734 MiB available memory on the node where the printing process lives
     GPU memory used/free/total (MiB): 1488 / 14792 / 16280
------------------
     ethr =  2.70E-05,  avg # of iterations =  1.0

     total cpu time spent up to now is       28.4 secs

     total energy              =    -386.03546889 Ry
     estimated scf accuracy    <       0.02666862 Ry

     total magnetization       =     8.00 Bohr mag/cell
     absolute magnetization    =     8.07 Bohr mag/cell
[tb_dev] Currently allocated     1.49E+00 Mbytes, locked:    0 /   6
[tb_pin] Currently allocated     0.00E+00 Mbytes, locked:    0 /   0

     iteration # 21     ecut=    45.00 Ry     beta= 0.20
     Davidson diagonalization with overlap

---- Real-time Memory Report at c_bands before calling an iterative solver
          1284 MiB given to the printing process from OS
          1064 MiB allocation reported by mallinfo(arena+hblkhd)
         57735 MiB available memory on the node where the printing process lives
     GPU memory used/free/total (MiB): 1488 / 14792 / 16280
------------------
     ethr =  2.70E-05,  avg # of iterations =  1.0

     total cpu time spent up to now is       29.7 secs

     total energy              =    -386.03552246 Ry
     estimated scf accuracy    <       0.02514004 Ry

     total magnetization       =     8.00 Bohr mag/cell
     absolute magnetization    =     8.07 Bohr mag/cell
[tb_dev] Currently allocated     1.49E+00 Mbytes, locked:    0 /   6
[tb_pin] Currently allocated     0.00E+00 Mbytes, locked:    0 /   0

     iteration # 22     ecut=    45.00 Ry     beta= 0.20
     Davidson diagonalization with overlap

---- Real-time Memory Report at c_bands before calling an iterative solver
          1284 MiB given to the printing process from OS
          1064 MiB allocation reported by mallinfo(arena+hblkhd)
         57734 MiB available memory on the node where the printing process lives
     GPU memory used/free/total (MiB): 1488 / 14792 / 16280
------------------
     ethr =  2.70E-05,  avg # of iterations =  1.0

     total cpu time spent up to now is       30.9 secs

     total energy              =    -386.03556726 Ry
     estimated scf accuracy    <       0.02389710 Ry

     total magnetization       =     8.00 Bohr mag/cell
     absolute magnetization    =     8.07 Bohr mag/cell
[tb_dev] Currently allocated     1.49E+00 Mbytes, locked:    0 /   6
[tb_pin] Currently allocated     0.00E+00 Mbytes, locked:    0 /   0

     iteration # 23     ecut=    45.00 Ry     beta= 0.20
     Davidson diagonalization with overlap

---- Real-time Memory Report at c_bands before calling an iterative solver
          1284 MiB given to the printing process from OS
          1064 MiB allocation reported by mallinfo(arena+hblkhd)
         57734 MiB available memory on the node where the printing process lives
     GPU memory used/free/total (MiB): 1488 / 14792 / 16280
------------------
     ethr =  2.70E-05,  avg # of iterations =  1.0

     total cpu time spent up to now is       32.3 secs

     total energy              =    -386.02581651 Ry
     estimated scf accuracy    <       0.01807092 Ry

     total magnetization       =     8.00 Bohr mag/cell
     absolute magnetization    =     8.07 Bohr mag/cell
[tb_dev] Currently allocated     1.49E+00 Mbytes, locked:    0 /   6
[tb_pin] Currently allocated     0.00E+00 Mbytes, locked:    0 /   0

     iteration # 24     ecut=    45.00 Ry     beta= 0.20
     Davidson diagonalization with overlap

---- Real-time Memory Report at c_bands before calling an iterative solver
          1284 MiB given to the printing process from OS
          1064 MiB allocation reported by mallinfo(arena+hblkhd)
         57735 MiB available memory on the node where the printing process lives
     GPU memory used/free/total (MiB): 1488 / 14792 / 16280
------------------
     ethr =  2.70E-05,  avg # of iterations =  1.5

     total cpu time spent up to now is       33.7 secs

     total energy              =    -385.99450229 Ry
     estimated scf accuracy    <       0.04207024 Ry

     total magnetization       =     8.00 Bohr mag/cell
     absolute magnetization    =     8.08 Bohr mag/cell
[tb_dev] Currently allocated     1.49E+00 Mbytes, locked:    0 /   6
[tb_pin] Currently allocated     0.00E+00 Mbytes, locked:    0 /   0

     iteration # 25     ecut=    45.00 Ry     beta= 0.20
     Davidson diagonalization with overlap

---- Real-time Memory Report at c_bands before calling an iterative solver
          1284 MiB given to the printing process from OS
          1064 MiB allocation reported by mallinfo(arena+hblkhd)
         57735 MiB available memory on the node where the printing process lives
     GPU memory used/free/total (MiB): 1488 / 14792 / 16280
------------------
     ethr =  2.70E-05,  avg # of iterations =  2.0

     total cpu time spent up to now is       35.2 secs

     total energy              =    -386.03041072 Ry
     estimated scf accuracy    <       0.16834902 Ry

     total magnetization       =     8.00 Bohr mag/cell
     absolute magnetization    =     8.10 Bohr mag/cell
[tb_dev] Currently allocated     1.49E+00 Mbytes, locked:    0 /   6
[tb_pin] Currently allocated     0.00E+00 Mbytes, locked:    0 /   0

     iteration # 26     ecut=    45.00 Ry     beta= 0.20
     Davidson diagonalization with overlap

---- Real-time Memory Report at c_bands before calling an iterative solver
          1284 MiB given to the printing process from OS
          1064 MiB allocation reported by mallinfo(arena+hblkhd)
         57736 MiB available memory on the node where the printing process lives
     GPU memory used/free/total (MiB): 1488 / 14792 / 16280
------------------
     ethr =  2.70E-05,  avg # of iterations =  1.5

     total cpu time spent up to now is       36.6 secs

     total energy              =    -386.03333563 Ry
     estimated scf accuracy    <       0.03860108 Ry

     total magnetization       =     8.00 Bohr mag/cell
     absolute magnetization    =     8.08 Bohr mag/cell
[tb_dev] Currently allocated     1.49E+00 Mbytes, locked:    0 /   6
[tb_pin] Currently allocated     0.00E+00 Mbytes, locked:    0 /   0

     iteration # 27     ecut=    45.00 Ry     beta= 0.20
     Davidson diagonalization with overlap

---- Real-time Memory Report at c_bands before calling an iterative solver
          1284 MiB given to the printing process from OS
          1064 MiB allocation reported by mallinfo(arena+hblkhd)
         57736 MiB available memory on the node where the printing process lives
     GPU memory used/free/total (MiB): 1488 / 14792 / 16280
------------------
     ethr =  2.70E-05,  avg # of iterations =  1.5

     total cpu time spent up to now is       37.9 secs

     total energy              =    -386.03489163 Ry
     estimated scf accuracy    <       0.02029262 Ry

     total magnetization       =     8.00 Bohr mag/cell
     absolute magnetization    =     8.07 Bohr mag/cell
[tb_dev] Currently allocated     1.49E+00 Mbytes, locked:    0 /   6
[tb_pin] Currently allocated     0.00E+00 Mbytes, locked:    0 /   0

     iteration # 28     ecut=    45.00 Ry     beta= 0.20
     Davidson diagonalization with overlap

---- Real-time Memory Report at c_bands before calling an iterative solver
          1284 MiB given to the printing process from OS
          1064 MiB allocation reported by mallinfo(arena+hblkhd)
         57736 MiB available memory on the node where the printing process lives
     GPU memory used/free/total (MiB): 1488 / 14792 / 16280
------------------
     ethr =  2.70E-05,  avg # of iterations =  1.0

     total cpu time spent up to now is       39.1 secs

     total energy              =    -386.03475042 Ry
     estimated scf accuracy    <       0.01839357 Ry

     total magnetization       =     8.00 Bohr mag/cell
     absolute magnetization    =     8.07 Bohr mag/cell
[tb_dev] Currently allocated     1.49E+00 Mbytes, locked:    0 /   6
[tb_pin] Currently allocated     0.00E+00 Mbytes, locked:    0 /   0

     iteration # 29     ecut=    45.00 Ry     beta= 0.20
     Davidson diagonalization with overlap

---- Real-time Memory Report at c_bands before calling an iterative solver
          1284 MiB given to the printing process from OS
          1064 MiB allocation reported by mallinfo(arena+hblkhd)
         57737 MiB available memory on the node where the printing process lives
     GPU memory used/free/total (MiB): 1488 / 14792 / 16280
------------------
     ethr =  2.70E-05,  avg # of iterations =  1.0

     total cpu time spent up to now is       40.4 secs

     total energy              =    -386.03426013 Ry
     estimated scf accuracy    <       0.02459954 Ry

     total magnetization       =     8.00 Bohr mag/cell
     absolute magnetization    =     8.07 Bohr mag/cell
[tb_dev] Currently allocated     1.49E+00 Mbytes, locked:    0 /   6
[tb_pin] Currently allocated     0.00E+00 Mbytes, locked:    0 /   0

     iteration # 30     ecut=    45.00 Ry     beta= 0.20
     Davidson diagonalization with overlap

---- Real-time Memory Report at c_bands before calling an iterative solver
          1284 MiB given to the printing process from OS
          1064 MiB allocation reported by mallinfo(arena+hblkhd)
         57737 MiB available memory on the node where the printing process lives
     GPU memory used/free/total (MiB): 1488 / 14792 / 16280
------------------
     ethr =  2.70E-05,  avg # of iterations =  1.5

     total cpu time spent up to now is       41.8 secs

     total energy              =    -386.03558700 Ry
     estimated scf accuracy    <       0.01658623 Ry

     total magnetization       =     8.00 Bohr mag/cell
     absolute magnetization    =     8.07 Bohr mag/cell
[tb_dev] Currently allocated     1.49E+00 Mbytes, locked:    0 /   6
[tb_pin] Currently allocated     0.00E+00 Mbytes, locked:    0 /   0

     iteration # 31     ecut=    45.00 Ry     beta= 0.20
     Davidson diagonalization with overlap

---- Real-time Memory Report at c_bands before calling an iterative solver
          1284 MiB given to the printing process from OS
          1064 MiB allocation reported by mallinfo(arena+hblkhd)
         57736 MiB available memory on the node where the printing process lives
     GPU memory used/free/total (MiB): 1498 / 14782 / 16280
------------------
     ethr =  2.70E-05,  avg # of iterations =  1.0

     total cpu time spent up to now is       43.0 secs

     total energy              =    -386.03384079 Ry
     estimated scf accuracy    <       0.02211727 Ry

     total magnetization       =     8.00 Bohr mag/cell
     absolute magnetization    =     8.08 Bohr mag/cell
[tb_dev] Currently allocated     1.49E+00 Mbytes, locked:    0 /   6
[tb_pin] Currently allocated     0.00E+00 Mbytes, locked:    0 /   0

     iteration # 32     ecut=    45.00 Ry     beta= 0.20
     Davidson diagonalization with overlap

---- Real-time Memory Report at c_bands before calling an iterative solver
          1284 MiB given to the printing process from OS
          1064 MiB allocation reported by mallinfo(arena+hblkhd)
         57734 MiB available memory on the node where the printing process lives
     GPU memory used/free/total (MiB): 1498 / 14782 / 16280
------------------
     ethr =  2.70E-05,  avg # of iterations =  1.5

     total cpu time spent up to now is       44.4 secs

     total energy              =    -386.03900209 Ry
     estimated scf accuracy    <       0.08973289 Ry

     total magnetization       =     8.00 Bohr mag/cell
     absolute magnetization    =     8.09 Bohr mag/cell
[tb_dev] Currently allocated     1.49E+00 Mbytes, locked:    0 /   6
[tb_pin] Currently allocated     0.00E+00 Mbytes, locked:    0 /   0

     iteration # 33     ecut=    45.00 Ry     beta= 0.20
     Davidson diagonalization with overlap

---- Real-time Memory Report at c_bands before calling an iterative solver
          1284 MiB given to the printing process from OS
          1064 MiB allocation reported by mallinfo(arena+hblkhd)
         57735 MiB available memory on the node where the printing process lives
     GPU memory used/free/total (MiB): 1498 / 14782 / 16280
------------------
     ethr =  2.70E-05,  avg # of iterations =  1.0

     total cpu time spent up to now is       45.7 secs

     total energy              =    -386.03095789 Ry
     estimated scf accuracy    <       0.10684137 Ry

     total magnetization       =     8.00 Bohr mag/cell
     absolute magnetization    =     8.09 Bohr mag/cell
[tb_dev] Currently allocated     1.49E+00 Mbytes, locked:    0 /   6
[tb_pin] Currently allocated     0.00E+00 Mbytes, locked:    0 /   0

     iteration # 34     ecut=    45.00 Ry     beta= 0.20
     Davidson diagonalization with overlap

---- Real-time Memory Report at c_bands before calling an iterative solver
          1284 MiB given to the printing process from OS
          1064 MiB allocation reported by mallinfo(arena+hblkhd)
         57734 MiB available memory on the node where the printing process lives
     GPU memory used/free/total (MiB): 1498 / 14782 / 16280
------------------
     ethr =  2.70E-05,  avg # of iterations =  1.5

     total cpu time spent up to now is       47.0 secs

     total energy              =    -386.03330941 Ry
     estimated scf accuracy    <       0.02330238 Ry

     total magnetization       =     8.00 Bohr mag/cell
     absolute magnetization    =     8.08 Bohr mag/cell
[tb_dev] Currently allocated     1.49E+00 Mbytes, locked:    0 /   6
[tb_pin] Currently allocated     0.00E+00 Mbytes, locked:    0 /   0

     iteration # 35     ecut=    45.00 Ry     beta= 0.20
     Davidson diagonalization with overlap

---- Real-time Memory Report at c_bands before calling an iterative solver
          1284 MiB given to the printing process from OS
          1064 MiB allocation reported by mallinfo(arena+hblkhd)
         57734 MiB available memory on the node where the printing process lives
     GPU memory used/free/total (MiB): 1498 / 14782 / 16280
------------------
     ethr =  2.70E-05,  avg # of iterations =  1.5

     total cpu time spent up to now is       48.4 secs

     total energy              =    -386.03533891 Ry
     estimated scf accuracy    <       0.01537229 Ry

     total magnetization       =     8.00 Bohr mag/cell
     absolute magnetization    =     8.07 Bohr mag/cell
[tb_dev] Currently allocated     1.49E+00 Mbytes, locked:    0 /   6
[tb_pin] Currently allocated     0.00E+00 Mbytes, locked:    0 /   0

     iteration # 36     ecut=    45.00 Ry     beta= 0.20
     Davidson diagonalization with overlap

---- Real-time Memory Report at c_bands before calling an iterative solver
          1284 MiB given to the printing process from OS
          1064 MiB allocation reported by mallinfo(arena+hblkhd)
         57735 MiB available memory on the node where the printing process lives
     GPU memory used/free/total (MiB): 1498 / 14782 / 16280
------------------
     ethr =  2.70E-05,  avg # of iterations =  1.0

     total cpu time spent up to now is       49.6 secs

     total energy              =    -386.03455701 Ry
     estimated scf accuracy    <       0.01521209 Ry

     total magnetization       =     8.00 Bohr mag/cell
     absolute magnetization    =     8.07 Bohr mag/cell
[tb_dev] Currently allocated     1.49E+00 Mbytes, locked:    0 /   6
[tb_pin] Currently allocated     0.00E+00 Mbytes, locked:    0 /   0

     iteration # 37     ecut=    45.00 Ry     beta= 0.20
     Davidson diagonalization with overlap

---- Real-time Memory Report at c_bands before calling an iterative solver
          1284 MiB given to the printing process from OS
          1064 MiB allocation reported by mallinfo(arena+hblkhd)
         57736 MiB available memory on the node where the printing process lives
     GPU memory used/free/total (MiB): 1498 / 14782 / 16280
------------------
     ethr =  2.70E-05,  avg # of iterations =  1.5

     total cpu time spent up to now is       51.0 secs

     total energy              =    -386.02783365 Ry
     estimated scf accuracy    <       0.02519773 Ry

     total magnetization       =     8.00 Bohr mag/cell
     absolute magnetization    =     8.08 Bohr mag/cell
[tb_dev] Currently allocated     1.49E+00 Mbytes, locked:    0 /   6
[tb_pin] Currently allocated     0.00E+00 Mbytes, locked:    0 /   0

     iteration # 38     ecut=    45.00 Ry     beta= 0.20
     Davidson diagonalization with overlap

---- Real-time Memory Report at c_bands before calling an iterative solver
          1284 MiB given to the printing process from OS
          1064 MiB allocation reported by mallinfo(arena+hblkhd)
         57737 MiB available memory on the node where the printing process lives
     GPU memory used/free/total (MiB): 1498 / 14782 / 16280
------------------
     ethr =  2.70E-05,  avg # of iterations =  1.5

     total cpu time spent up to now is       52.4 secs

     total energy              =    -386.03138192 Ry
     estimated scf accuracy    <       0.02568560 Ry

     total magnetization       =     8.00 Bohr mag/cell
     absolute magnetization    =     8.07 Bohr mag/cell
[tb_dev] Currently allocated     1.49E+00 Mbytes, locked:    0 /   6
[tb_pin] Currently allocated     0.00E+00 Mbytes, locked:    0 /   0

     iteration # 39     ecut=    45.00 Ry     beta= 0.20
     Davidson diagonalization with overlap

---- Real-time Memory Report at c_bands before calling an iterative solver
          1284 MiB given to the printing process from OS
          1064 MiB allocation reported by mallinfo(arena+hblkhd)
         57737 MiB available memory on the node where the printing process lives
     GPU memory used/free/total (MiB): 1498 / 14782 / 16280
------------------
     ethr =  2.70E-05,  avg # of iterations =  1.5

     total cpu time spent up to now is       53.8 secs

     total energy              =    -386.03361064 Ry
     estimated scf accuracy    <       0.09665768 Ry

     total magnetization       =     8.00 Bohr mag/cell
     absolute magnetization    =     8.08 Bohr mag/cell
[tb_dev] Currently allocated     1.49E+00 Mbytes, locked:    0 /   6
[tb_pin] Currently allocated     0.00E+00 Mbytes, locked:    0 /   0

     iteration # 40     ecut=    45.00 Ry     beta= 0.20
     Davidson diagonalization with overlap

---- Real-time Memory Report at c_bands before calling an iterative solver
          1284 MiB given to the printing process from OS
          1064 MiB allocation reported by mallinfo(arena+hblkhd)
         57737 MiB available memory on the node where the printing process lives
     GPU memory used/free/total (MiB): 1498 / 14782 / 16280
------------------
     ethr =  2.70E-05,  avg # of iterations =  1.0

     total cpu time spent up to now is       55.0 secs

     total energy              =    -386.02965277 Ry
     estimated scf accuracy    <       0.10369332 Ry

     total magnetization       =     8.00 Bohr mag/cell
     absolute magnetization    =     8.08 Bohr mag/cell
[tb_dev] Currently allocated     1.49E+00 Mbytes, locked:    0 /   6
[tb_pin] Currently allocated     0.00E+00 Mbytes, locked:    0 /   0

     iteration # 41     ecut=    45.00 Ry     beta= 0.20
     Davidson diagonalization with overlap

---- Real-time Memory Report at c_bands before calling an iterative solver
          1284 MiB given to the printing process from OS
          1064 MiB allocation reported by mallinfo(arena+hblkhd)
         57737 MiB available memory on the node where the printing process lives
     GPU memory used/free/total (MiB): 1498 / 14782 / 16280
------------------
     ethr =  2.70E-05,  avg # of iterations =  1.5

     total cpu time spent up to now is       56.4 secs

     total energy              =    -386.03279250 Ry
     estimated scf accuracy    <       0.36683662 Ry

     total magnetization       =     8.00 Bohr mag/cell
     absolute magnetization    =     8.09 Bohr mag/cell
[tb_dev] Currently allocated     1.49E+00 Mbytes, locked:    0 /   6
[tb_pin] Currently allocated     0.00E+00 Mbytes, locked:    0 /   0

     iteration # 42     ecut=    45.00 Ry     beta= 0.20
     Davidson diagonalization with overlap

---- Real-time Memory Report at c_bands before calling an iterative solver
          1284 MiB given to the printing process from OS
          1064 MiB allocation reported by mallinfo(arena+hblkhd)
         57737 MiB available memory on the node where the printing process lives
     GPU memory used/free/total (MiB): 1498 / 14782 / 16280
------------------
     ethr =  2.70E-05,  avg # of iterations =  1.0

     total cpu time spent up to now is       57.7 secs

     total energy              =    -386.03279386 Ry
     estimated scf accuracy    <       0.31348455 Ry

     total magnetization       =     8.00 Bohr mag/cell
     absolute magnetization    =     8.09 Bohr mag/cell
[tb_dev] Currently allocated     1.49E+00 Mbytes, locked:    0 /   6
[tb_pin] Currently allocated     0.00E+00 Mbytes, locked:    0 /   0

     iteration # 43     ecut=    45.00 Ry     beta= 0.20
     Davidson diagonalization with overlap

---- Real-time Memory Report at c_bands before calling an iterative solver
          1284 MiB given to the printing process from OS
          1064 MiB allocation reported by mallinfo(arena+hblkhd)
         57738 MiB available memory on the node where the printing process lives
     GPU memory used/free/total (MiB): 1498 / 14782 / 16280
------------------
     ethr =  2.70E-05,  avg # of iterations =  1.0

     total cpu time spent up to now is       59.0 secs

     total energy              =    -386.02806223 Ry
     estimated scf accuracy    <       0.25426523 Ry

     total magnetization       =     8.00 Bohr mag/cell
     absolute magnetization    =     8.09 Bohr mag/cell
[tb_dev] Currently allocated     1.49E+00 Mbytes, locked:    0 /   6
[tb_pin] Currently allocated     0.00E+00 Mbytes, locked:    0 /   0

     iteration # 44     ecut=    45.00 Ry     beta= 0.20
     Davidson diagonalization with overlap

---- Real-time Memory Report at c_bands before calling an iterative solver
          1284 MiB given to the printing process from OS
          1064 MiB allocation reported by mallinfo(arena+hblkhd)
         57738 MiB available memory on the node where the printing process lives
     GPU memory used/free/total (MiB): 1498 / 14782 / 16280
------------------
     ethr =  2.70E-05,  avg # of iterations =  1.5

     total cpu time spent up to now is       60.4 secs

     total energy              =    -386.03290830 Ry
     estimated scf accuracy    <       0.78178019 Ry

     total magnetization       =     8.00 Bohr mag/cell
     absolute magnetization    =     8.14 Bohr mag/cell
[tb_dev] Currently allocated     1.49E+00 Mbytes, locked:    0 /   6
[tb_pin] Currently allocated     0.00E+00 Mbytes, locked:    0 /   0

     iteration # 45     ecut=    45.00 Ry     beta= 0.20
     Davidson diagonalization with overlap

---- Real-time Memory Report at c_bands before calling an iterative solver
          1284 MiB given to the printing process from OS
          1064 MiB allocation reported by mallinfo(arena+hblkhd)
         57739 MiB available memory on the node where the printing process lives
     GPU memory used/free/total (MiB): 1498 / 14782 / 16280
------------------
     ethr =  2.70E-05,  avg # of iterations =  1.0

     total cpu time spent up to now is       61.7 secs

     total energy              =    -386.01755712 Ry
     estimated scf accuracy    <       0.70008132 Ry

     total magnetization       =     8.00 Bohr mag/cell
     absolute magnetization    =     8.13 Bohr mag/cell
[tb_dev] Currently allocated     1.49E+00 Mbytes, locked:    0 /   6
[tb_pin] Currently allocated     0.00E+00 Mbytes, locked:    0 /   0

     iteration # 46     ecut=    45.00 Ry     beta= 0.20
     Davidson diagonalization with overlap

---- Real-time Memory Report at c_bands before calling an iterative solver
          1284 MiB given to the printing process from OS
          1064 MiB allocation reported by mallinfo(arena+hblkhd)
         57739 MiB available memory on the node where the printing process lives
     GPU memory used/free/total (MiB): 1498 / 14782 / 16280
------------------
     ethr =  2.70E-05,  avg # of iterations =  1.5

     total cpu time spent up to now is       63.1 secs

     total energy              =    -386.02792743 Ry
     estimated scf accuracy    <       0.04058277 Ry

     total magnetization       =     8.00 Bohr mag/cell
     absolute magnetization    =     8.08 Bohr mag/cell
[tb_dev] Currently allocated     1.49E+00 Mbytes, locked:    0 /   6
[tb_pin] Currently allocated     0.00E+00 Mbytes, locked:    0 /   0

     iteration # 47     ecut=    45.00 Ry     beta= 0.20
     Davidson diagonalization with overlap

---- Real-time Memory Report at c_bands before calling an iterative solver
          1284 MiB given to the printing process from OS
          1064 MiB allocation reported by mallinfo(arena+hblkhd)
         57738 MiB available memory on the node where the printing process lives
     GPU memory used/free/total (MiB): 1498 / 14782 / 16280
------------------
     ethr =  2.70E-05,  avg # of iterations =  1.5

     total cpu time spent up to now is       64.5 secs

     total energy              =    -386.02689447 Ry
     estimated scf accuracy    <       0.01481228 Ry

     total magnetization       =     8.00 Bohr mag/cell
     absolute magnetization    =     8.07 Bohr mag/cell
[tb_dev] Currently allocated     1.49E+00 Mbytes, locked:    0 /   6
[tb_pin] Currently allocated     0.00E+00 Mbytes, locked:    0 /   0

     iteration # 48     ecut=    45.00 Ry     beta= 0.20
     Davidson diagonalization with overlap

---- Real-time Memory Report at c_bands before calling an iterative solver
          1284 MiB given to the printing process from OS
          1064 MiB allocation reported by mallinfo(arena+hblkhd)
         57738 MiB available memory on the node where the printing process lives
     GPU memory used/free/total (MiB): 1498 / 14782 / 16280
------------------
     ethr =  2.65E-05,  avg # of iterations =  2.0

     total cpu time spent up to now is       66.0 secs

     total energy              =    -386.00211069 Ry
     estimated scf accuracy    <       0.17124298 Ry

     total magnetization       =     8.00 Bohr mag/cell
     absolute magnetization    =     8.10 Bohr mag/cell
[tb_dev] Currently allocated     1.49E+00 Mbytes, locked:    0 /   6
[tb_pin] Currently allocated     0.00E+00 Mbytes, locked:    0 /   0

     iteration # 49     ecut=    45.00 Ry     beta= 0.20
     Davidson diagonalization with overlap

---- Real-time Memory Report at c_bands before calling an iterative solver
          1284 MiB given to the printing process from OS
          1064 MiB allocation reported by mallinfo(arena+hblkhd)
         57739 MiB available memory on the node where the printing process lives
     GPU memory used/free/total (MiB): 1498 / 14782 / 16280
------------------
     ethr =  2.65E-05,  avg # of iterations =  2.0

     total cpu time spent up to now is       67.5 secs

     total energy              =    -386.03060072 Ry
     estimated scf accuracy    <       0.03008092 Ry

     total magnetization       =     8.00 Bohr mag/cell
     absolute magnetization    =     8.07 Bohr mag/cell
[tb_dev] Currently allocated     1.49E+00 Mbytes, locked:    0 /   6
[tb_pin] Currently allocated     0.00E+00 Mbytes, locked:    0 /   0

     iteration # 50     ecut=    45.00 Ry     beta= 0.20
     Davidson diagonalization with overlap

---- Real-time Memory Report at c_bands before calling an iterative solver
          1284 MiB given to the printing process from OS
          1064 MiB allocation reported by mallinfo(arena+hblkhd)
         57739 MiB available memory on the node where the printing process lives
     GPU memory used/free/total (MiB): 1498 / 14782 / 16280
------------------
     ethr =  2.65E-05,  avg # of iterations =  1.5

     total cpu time spent up to now is       68.9 secs

     total energy              =    -386.03574593 Ry
     estimated scf accuracy    <       0.01856406 Ry

     total magnetization       =     8.00 Bohr mag/cell
     absolute magnetization    =     8.07 Bohr mag/cell
[tb_dev] Currently allocated     1.49E+00 Mbytes, locked:    0 /   6
[tb_pin] Currently allocated     0.00E+00 Mbytes, locked:    0 /   0

     iteration # 51     ecut=    45.00 Ry     beta= 0.20
     Davidson diagonalization with overlap

---- Real-time Memory Report at c_bands before calling an iterative solver
          1284 MiB given to the printing process from OS
          1064 MiB allocation reported by mallinfo(arena+hblkhd)
         57739 MiB available memory on the node where the printing process lives
     GPU memory used/free/total (MiB): 1498 / 14782 / 16280
------------------
     ethr =  2.65E-05,  avg # of iterations =  1.0

     total cpu time spent up to now is       70.1 secs

     total energy              =    -386.03426870 Ry
     estimated scf accuracy    <       0.01726643 Ry

     total magnetization       =     8.00 Bohr mag/cell
     absolute magnetization    =     8.07 Bohr mag/cell
[tb_dev] Currently allocated     1.49E+00 Mbytes, locked:    0 /   6
[...]
         57738 MiB available memory on the node where the printing process lives
     GPU memory used/free/total (MiB): 1498 / 14782 / 16280
------------------
     ethr =  2.46E-05,  avg # of iterations =  1.5

     total cpu time spent up to now is       88.5 secs

     total energy              =    -386.03508857 Ry
     estimated scf accuracy    <       0.00976731 Ry

     total magnetization       =     8.00 Bohr mag/cell
     absolute magnetization    =     8.07 Bohr mag/cell
[tb_dev] Currently allocated     1.49E+00 Mbytes, locked:    0 /   6
[tb_pin] Currently allocated     0.00E+00 Mbytes, locked:    0 /   0

     iteration # 65     ecut=    45.00 Ry     beta= 0.20
     Davidson diagonalization with overlap

---- Real-time Memory Report at c_bands before calling an iterative solver
          1284 MiB given to the printing process from OS
          1064 MiB allocation reported by mallinfo(arena+hblkhd)
         57738 MiB available memory on the node where the printing process lives
     GPU memory used/free/total (MiB): 1498 / 14782 / 16280
------------------
     ethr =  1.74E-05,  avg # of iterations =  1.0

     total cpu time spent up to now is       89.8 secs

     total energy              =    -386.03582376 Ry
     estimated scf accuracy    <       0.01446004 Ry

     total magnetization       =     8.00 Bohr mag/cell
     absolute magnetization    =     8.08 Bohr mag/cell
[tb_dev] Currently allocated     1.49E+00 Mbytes, locked:    0 /   6
[tb_pin] Currently allocated     0.00E+00 Mbytes, locked:    0 /   0

     iteration # 66     ecut=    45.00 Ry     beta= 0.20
     Davidson diagonalization with overlap

---- Real-time Memory Report at c_bands before calling an iterative solver
          1284 MiB given to the printing process from OS
          1064 MiB allocation reported by mallinfo(arena+hblkhd)
         57738 MiB available memory on the node where the printing process lives
     GPU memory used/free/total (MiB): 1498 / 14782 / 16280
------------------
     ethr =  1.74E-05,  avg # of iterations =  1.0

     total cpu time spent up to now is       91.0 secs

     total energy              =    -386.03091948 Ry
     estimated scf accuracy    <       0.01427446 Ry

     total magnetization       =     8.00 Bohr mag/cell
     absolute magnetization    =     8.07 Bohr mag/cell
[tb_dev] Currently allocated     1.49E+00 Mbytes, locked:    0 /   6
[tb_pin] Currently allocated     0.00E+00 Mbytes, locked:    0 /   0

     iteration # 67     ecut=    45.00 Ry     beta= 0.20
     Davidson diagonalization with overlap

---- Real-time Memory Report at c_bands before calling an iterative solver
          1284 MiB given to the printing process from OS
          1064 MiB allocation reported by mallinfo(arena+hblkhd)
         57738 MiB available memory on the node where the printing process lives
     GPU memory used/free/total (MiB): 1498 / 14782 / 16280
------------------
     ethr =  1.74E-05,  avg # of iterations =  1.5

     total cpu time spent up to now is       92.5 secs

     total energy              =    -386.03311164 Ry
     estimated scf accuracy    <       0.02278550 Ry

     total magnetization       =     8.00 Bohr mag/cell
     absolute magnetization    =     8.07 Bohr mag/cell
[tb_dev] Currently allocated     1.49E+00 Mbytes, locked:    0 /   6
[tb_pin] Currently allocated     0.00E+00 Mbytes, locked:    0 /   0

     iteration # 68     ecut=    45.00 Ry     beta= 0.20
     Davidson diagonalization with overlap

---- Real-time Memory Report at c_bands before calling an iterative solver
          1284 MiB given to the printing process from OS
          1064 MiB allocation reported by mallinfo(arena+hblkhd)
         57737 MiB available memory on the node where the printing process lives
     GPU memory used/free/total (MiB): 1498 / 14782 / 16280
------------------
     ethr =  1.74E-05,  avg # of iterations =  1.5

     total cpu time spent up to now is       93.9 secs

     total energy              =    -386.03250133 Ry
     estimated scf accuracy    <       0.01114056 Ry

     total magnetization       =     8.00 Bohr mag/cell
     absolute magnetization    =     8.07 Bohr mag/cell
[tb_dev] Currently allocated     1.49E+00 Mbytes, locked:    0 /   6
[tb_pin] Currently allocated     0.00E+00 Mbytes, locked:    0 /   0

     iteration # 69     ecut=    45.00 Ry     beta= 0.20
     Davidson diagonalization with overlap

---- Real-time Memory Report at c_bands before calling an iterative solver
          1284 MiB given to the printing process from OS
          1064 MiB allocation reported by mallinfo(arena+hblkhd)
         57738 MiB available memory on the node where the printing process lives
     GPU memory used/free/total (MiB): 1498 / 14782 / 16280
------------------
     ethr =  1.74E-05,  avg # of iterations =  1.5

     total cpu time spent up to now is       95.3 secs

     total energy              =    -386.03430773 Ry
     estimated scf accuracy    <       0.01633802 Ry

     total magnetization       =     8.00 Bohr mag/cell
     absolute magnetization    =     8.07 Bohr mag/cell
[tb_dev] Currently allocated     1.49E+00 Mbytes, locked:    0 /   6
[tb_pin] Currently allocated     0.00E+00 Mbytes, locked:    0 /   0

     iteration # 70     ecut=    45.00 Ry     beta= 0.20
     Davidson diagonalization with overlap

---- Real-time Memory Report at c_bands before calling an iterative solver
          1284 MiB given to the printing process from OS
          1064 MiB allocation reported by mallinfo(arena+hblkhd)
         57738 MiB available memory on the node where the printing process lives
     GPU memory used/free/total (MiB): 1498 / 14782 / 16280
------------------
     ethr =  1.74E-05,  avg # of iterations =  1.5

     total cpu time spent up to now is       96.6 secs

     total energy              =    -386.03027565 Ry
     estimated scf accuracy    <       0.01020865 Ry

     total magnetization       =     8.00 Bohr mag/cell
     absolute magnetization    =     8.07 Bohr mag/cell
[tb_dev] Currently allocated     1.49E+00 Mbytes, locked:    0 /   6
[tb_pin] Currently allocated     0.00E+00 Mbytes, locked:    0 /   0

     iteration # 71     ecut=    45.00 Ry     beta= 0.20
     Davidson diagonalization with overlap

---- Real-time Memory Report at c_bands before calling an iterative solver
          1284 MiB given to the printing process from OS
          1064 MiB allocation reported by mallinfo(arena+hblkhd)
         57738 MiB available memory on the node where the printing process lives
     GPU memory used/free/total (MiB): 1498 / 14782 / 16280
------------------
     ethr =  1.74E-05,  avg # of iterations =  1.8

     total cpu time spent up to now is       98.1 secs

     total energy              =    -386.01479533 Ry
     estimated scf accuracy    <       0.05734340 Ry

     total magnetization       =     8.00 Bohr mag/cell
     absolute magnetization    =     8.08 Bohr mag/cell
[tb_dev] Currently allocated     1.49E+00 Mbytes, locked:    0 /   6
[tb_pin] Currently allocated     0.00E+00 Mbytes, locked:    0 /   0

     iteration # 72     ecut=    45.00 Ry     beta= 0.20
     Davidson diagonalization with overlap

---- Real-time Memory Report at c_bands before calling an iterative solver
          1284 MiB given to the printing process from OS
          1064 MiB allocation reported by mallinfo(arena+hblkhd)
         57738 MiB available memory on the node where the printing process lives
     GPU memory used/free/total (MiB): 1498 / 14782 / 16280
------------------
     ethr =  1.74E-05,  avg # of iterations =  2.0

     total cpu time spent up to now is       99.6 secs

     total energy              =    -386.03447526 Ry
     estimated scf accuracy    <       0.03150666 Ry

     total magnetization       =     8.00 Bohr mag/cell
     absolute magnetization    =     8.07 Bohr mag/cell
[tb_dev] Currently allocated     1.49E+00 Mbytes, locked:    0 /   6
[tb_pin] Currently allocated     0.00E+00 Mbytes, locked:    0 /   0

     iteration # 73     ecut=    45.00 Ry     beta= 0.20
     Davidson diagonalization with overlap

---- Real-time Memory Report at c_bands before calling an iterative solver
          1284 MiB given to the printing process from OS
          1064 MiB allocation reported by mallinfo(arena+hblkhd)
         57739 MiB available memory on the node where the printing process lives
     GPU memory used/free/total (MiB): 1498 / 14782 / 16280
------------------
     ethr =  1.74E-05,  avg # of iterations =  1.0

     total cpu time spent up to now is      100.8 secs

     total energy              =    -386.03422935 Ry
     estimated scf accuracy    <       0.02583055 Ry

     total magnetization       =     8.00 Bohr mag/cell
     absolute magnetization    =     8.07 Bohr mag/cell
[tb_dev] Currently allocated     1.49E+00 Mbytes, locked:    0 /   6
[tb_pin] Currently allocated     0.00E+00 Mbytes, locked:    0 /   0

     iteration # 74     ecut=    45.00 Ry     beta= 0.20
     Davidson diagonalization with overlap

---- Real-time Memory Report at c_bands before calling an iterative solver
          1284 MiB given to the printing process from OS
          1064 MiB allocation reported by mallinfo(arena+hblkhd)
         57738 MiB available memory on the node where the printing process lives
     GPU memory used/free/total (MiB): 1498 / 14782 / 16280
------------------
     ethr =  1.74E-05,  avg # of iterations =  1.0

     total cpu time spent up to now is      102.1 secs

     total energy              =    -386.03045664 Ry
     estimated scf accuracy    <       0.03472960 Ry

     total magnetization       =     8.00 Bohr mag/cell
     absolute magnetization    =     8.07 Bohr mag/cell
[tb_dev] Currently allocated     1.49E+00 Mbytes, locked:    0 /   6
[tb_pin] Currently allocated     0.00E+00 Mbytes, locked:    0 /   0

     iteration # 75     ecut=    45.00 Ry     beta= 0.20
     Davidson diagonalization with overlap

---- Real-time Memory Report at c_bands before calling an iterative solver
          1284 MiB given to the printing process from OS
          1064 MiB allocation reported by mallinfo(arena+hblkhd)
         57737 MiB available memory on the node where the printing process lives
     GPU memory used/free/total (MiB): 1498 / 14782 / 16280
------------------
     ethr =  1.74E-05,  avg # of iterations =  1.5

     total cpu time spent up to now is      103.5 secs

     total energy              =    -386.01737393 Ry
     estimated scf accuracy    <       0.15907940 Ry

     total magnetization       =     8.00 Bohr mag/cell
     absolute magnetization    =     8.08 Bohr mag/cell
[tb_dev] Currently allocated     1.49E+00 Mbytes, locked:    0 /   6
[tb_pin] Currently allocated     0.00E+00 Mbytes, locked:    0 /   0

     iteration # 76     ecut=    45.00 Ry     beta= 0.20
     Davidson diagonalization with overlap

---- Real-time Memory Report at c_bands before calling an iterative solver
          1284 MiB given to the printing process from OS
          1064 MiB allocation reported by mallinfo(arena+hblkhd)
         57738 MiB available memory on the node where the printing process lives
     GPU memory used/free/total (MiB): 1498 / 14782 / 16280
------------------
     ethr =  1.74E-05,  avg # of iterations =  2.0

     total cpu time spent up to now is      105.1 secs

     total energy              =    -386.03245216 Ry
     estimated scf accuracy    <       0.01473990 Ry

     total magnetization       =     8.00 Bohr mag/cell
     absolute magnetization    =     8.07 Bohr mag/cell
[tb_dev] Currently allocated     1.49E+00 Mbytes, locked:    0 /   6
[tb_pin] Currently allocated     0.00E+00 Mbytes, locked:    0 /   0

     iteration # 77     ecut=    45.00 Ry     beta= 0.20
     Davidson diagonalization with overlap

---- Real-time Memory Report at c_bands before calling an iterative solver
          1284 MiB given to the printing process from OS
          1064 MiB allocation reported by mallinfo(arena+hblkhd)
         57739 MiB available memory on the node where the printing process lives
     GPU memory used/free/total (MiB): 1498 / 14782 / 16280
------------------
     ethr =  1.74E-05,  avg # of iterations =  1.5

     total cpu time spent up to now is      106.4 secs

     total energy              =    -386.03309691 Ry
     estimated scf accuracy    <       0.01502421 Ry

     total magnetization       =     8.00 Bohr mag/cell
     absolute magnetization    =     8.07 Bohr mag/cell
[tb_dev] Currently allocated     1.49E+00 Mbytes, locked:    0 /   6
[tb_pin] Currently allocated     0.00E+00 Mbytes, locked:    0 /   0

     iteration # 78     ecut=    45.00 Ry     beta= 0.20
     Davidson diagonalization with overlap

---- Real-time Memory Report at c_bands before calling an iterative solver
          1284 MiB given to the printing process from OS
          1064 MiB allocation reported by mallinfo(arena+hblkhd)
         57740 MiB available memory on the node where the printing process lives
     GPU memory used/free/total (MiB): 1498 / 14782 / 16280
------------------
     ethr =  1.74E-05,  avg # of iterations =  1.5

     total cpu time spent up to now is      107.8 secs

     total energy              =    -386.03253918 Ry
     estimated scf accuracy    <       0.01620373 Ry

     total magnetization       =     8.00 Bohr mag/cell
     absolute magnetization    =     8.07 Bohr mag/cell
[tb_dev] Currently allocated     1.49E+00 Mbytes, locked:    0 /   6
[tb_pin] Currently allocated     0.00E+00 Mbytes, locked:    0 /   0

     iteration # 79     ecut=    45.00 Ry     beta= 0.20
     Davidson diagonalization with overlap

---- Real-time Memory Report at c_bands before calling an iterative solver
          1284 MiB given to the printing process from OS
          1064 MiB allocation reported by mallinfo(arena+hblkhd)
         57739 MiB available memory on the node where the printing process lives
     GPU memory used/free/total (MiB): 1498 / 14782 / 16280
------------------
     ethr =  1.74E-05,  avg # of iterations =  1.8

     total cpu time spent up to now is      109.2 secs

     total energy              =    -386.02982022 Ry
     estimated scf accuracy    <       0.09703348 Ry

     total magnetization       =     8.00 Bohr mag/cell
     absolute magnetization    =     8.09 Bohr mag/cell
[tb_dev] Currently allocated     1.49E+00 Mbytes, locked:    0 /   6
[tb_pin] Currently allocated     0.00E+00 Mbytes, locked:    0 /   0

     iteration # 80     ecut=    45.00 Ry     beta= 0.20
     Davidson diagonalization with overlap

---- Real-time Memory Report at c_bands before calling an iterative solver
          1284 MiB given to the printing process from OS
          1064 MiB allocation reported by mallinfo(arena+hblkhd)
         57739 MiB available memory on the node where the printing process lives
     GPU memory used/free/total (MiB): 1498 / 14782 / 16280
------------------
     ethr =  1.74E-05,  avg # of iterations =  1.6

     total cpu time spent up to now is      110.6 secs

     total energy              =    -386.03590224 Ry
     estimated scf accuracy    <       0.01685026 Ry

     total magnetization       =     8.00 Bohr mag/cell
     absolute magnetization    =     8.08 Bohr mag/cell

     End of self-consistent calculation

     convergence NOT achieved after  80 iterations: stopping

     Writing config to output data dir ./out/aiida.save/
 
     init_run     :      7.85s CPU      1.42s WALL (       1 calls)
     electrons    :    339.65s CPU    109.12s WALL (       1 calls)

     Called by init_run:
     wfcinit      :      0.09s CPU      0.09s WALL (       1 calls)
                                        0.09s GPU  (       1 calls)
     potinit      :      0.61s CPU      0.16s WALL (       1 calls)
     hinit0       :      4.65s CPU      0.50s WALL (       1 calls)

     Called by electrons:
     c_bands      :    211.01s CPU     79.57s WALL (      80 calls)
     sum_band     :     17.65s CPU     19.04s WALL (      80 calls)
     v_of_rho     :     33.61s CPU      3.07s WALL (      81 calls)
     v_h          :      4.94s CPU      0.44s WALL (      81 calls)
     v_xc         :     28.66s CPU      2.63s WALL (      81 calls)
     newd         :     21.28s CPU      2.18s WALL (      81 calls)
                                        2.18s GPU  (      81 calls)
     mix_rho      :     43.11s CPU      4.20s WALL (      80 calls)

     Called by c_bands:
     init_us_2    :      9.20s CPU      4.96s WALL (    6400 calls)
     init_us_2:gp :      8.96s CPU      4.85s WALL (    6400 calls)
     cegterg      :    170.62s CPU     64.33s WALL (    3200 calls)

     Called by sum_band:
     sum_band:wei :      0.12s CPU      0.12s WALL (      80 calls)
                                        0.12s GPU  (      80 calls)
     sum_band:loo :     13.94s CPU     15.27s WALL (      80 calls)
                                       15.27s GPU  (      80 calls)
     sum_band:buf :      4.81s CPU      5.19s WALL (    3200 calls)
                                        5.17s GPU  (    3200 calls)
     sum_band:ini :      2.10s CPU      2.34s WALL (    3200 calls)
                                        2.33s GPU  (    3200 calls)
     sum_band:cal :      0.09s CPU      0.62s WALL (    3200 calls)
                                        0.57s GPU  (    3200 calls)
     sum_band:bec :      0.52s CPU      0.61s WALL (    3200 calls)
                                        0.59s GPU  (    3200 calls)
     addusdens    :      0.74s CPU      0.78s WALL (      80 calls)
                                        0.78s GPU  (      80 calls)
     addusd:skk   :      0.03s CPU      0.03s WALL (      80 calls)
                                        0.03s GPU  (      80 calls)

     Called by *egterg:
     cdiaghg      :     54.02s CPU     21.26s WALL (    7625 calls)
                                       21.21s GPU  (    7625 calls)
     cegterg:over :      4.75s CPU      1.80s WALL (    4465 calls)
     cegterg:upda :      6.55s CPU      2.31s WALL (    4465 calls)
     cegterg:last :      2.53s CPU      0.90s WALL (    4412 calls)
     h_psi        :     88.02s CPU     32.78s WALL (    7665 calls)
                                       32.69s GPU  (    7665 calls)
     s_psi        :      2.69s CPU      1.84s WALL (    7665 calls)
                                        1.66s GPU  (    7665 calls)
     g_psi        :      0.11s CPU      0.22s WALL (    4465 calls)
                                        0.19s GPU  (    4465 calls)

     Called by h_psi:
     h_psi:calbec :      0.74s CPU      1.47s WALL (    7665 calls)
                                        1.42s GPU  (    7665 calls)
     vloc_psi     :     75.35s CPU     28.33s WALL (    7665 calls)
                                       28.29s GPU  (    7665 calls)
     add_vuspsi   :      4.22s CPU      2.25s WALL (    7665 calls)
                                        2.21s GPU  (    7665 calls)

     General routines
     calbec       :      0.59s CPU      0.25s WALL (   10865 calls)
     fft          :      3.04s CPU      0.56s WALL (    2022 calls)
                                        0.41s GPU  (    1860 calls)
     ffts         :      0.14s CPU      0.05s WALL (     322 calls)
                                        0.01s GPU  (     160 calls)
     fftw         :      2.77s CPU     21.86s WALL (   51646 calls)
                                       21.58s GPU  (   51646 calls)
     interpolate  :      4.91s CPU      0.44s WALL (     162 calls)
     davcio       :      0.89s CPU      0.47s WALL (      98 calls)
 
     Parallel routines
 
     PWSCF        :   5m50.31s CPU   1m51.02s WALL

 
   This run was terminated on:  20:10:33  23Oct2023            

=------------------------------------------------------------------------------=
   JOB DONE.
=------------------------------------------------------------------------------=
