
     Program PWSCF v.7.2 starts on 23Oct2023 at 17:37: 3 

     This program is part of the open-source Quantum ESPRESSO suite
     for quantum simulation of materials; please cite
         "P. Giannozzi et al., J. Phys.:Condens. Matter 21 395502 (2009);
         "P. Giannozzi et al., J. Phys.:Condens. Matter 29 465901 (2017);
         "P. Giannozzi et al., J. Chem. Phys. 152 154105 (2020);
          URL http://www.quantum-espresso.org", 
     in publications or presentations arising from this work. More details at
     http://www.quantum-espresso.org/quote

     Parallel version (MPI & OpenMP), running on      12 processor cores
     Number of MPI processes:                 1
     Threads/MPI process:                    12

     MPI processes distributed on     1 nodes
     60373 MiB available memory on the printing compute node when the environment starts
 
     Reading input from aiida.in

     Current dimensions of program PWSCF are:
     Max number of different atomic species (ntypx) = 10
     Max number of k-points (npk) =  40000
     Max angular momentum in pseudopotentials (lmaxx) =  4
     file O.pbesol-n-kjpaw_psl.0.1.UPF: wavefunction(s)  2P renormalized
     Message from routine setup:
     using ibrav=0 with symmetry is DISCOURAGED, use correct ibrav instead
 
     Subspace diagonalization in iterative solution of the eigenvalue problem:
     a serial algorithm will be used

 
     G-vector sticks info
     --------------------
     sticks:   dense  smooth     PW     G-vecs:    dense   smooth      PW
     Sum       11689    5853   1565               951323   336427   46297
 
     Using Slab Decomposition
 


     bravais-lattice index     =            0
     lattice parameter (alat)  =      19.1673  a.u.
     unit-cell volume          =    7041.7894 (a.u.)^3
     number of atoms/cell      =            5
     number of atomic types    =            3
     number of electrons       =        45.00
     number of Kohn-Sham states=           28
     kinetic-energy cutoff     =      50.0000  Ry
     charge density cutoff     =     400.0000  Ry
     scf convergence threshold =      1.0E-09
     mixing beta               =       0.2000
     number of iterations used =            8  plain     mixing
     Exchange-correlation= SLA  PW   PSX  PSC
                           (   1   4  10   8   0   0   0)

     GPU acceleration is ACTIVE.


     GPU used by master process:

        Device Number: 0
        Device name: Tesla P100-PCIE-16GB
        Compute capability : 60
        Ratio of single to double precision performance  : 2
        Memory Clock Rate (KHz): 715000
        Memory Bus Width (bits): 4096
        Peak Memory Bandwidth (GB/s): 732.16

     celldm(1)=  19.167303  celldm(2)=   0.000000  celldm(3)=   0.000000
     celldm(4)=   0.000000  celldm(5)=   0.000000  celldm(6)=   0.000000

     crystal axes: (cart. coord. in units of alat)
               a(1) = (   1.000000   0.000000   0.000000 )  
               a(2) = (   0.000000   1.000000   0.000000 )  
               a(3) = (   0.000000   0.000000   1.000000 )  

     reciprocal axes: (cart. coord. in units 2 pi/alat)
               b(1) = (  1.000000  0.000000  0.000000 )  
               b(2) = (  0.000000  1.000000  0.000000 )  
               b(3) = (  0.000000  0.000000  1.000000 )  


     PseudoPot. # 1 for O  read from file:
     ./pseudo/O.pbesol-n-kjpaw_psl.0.1.UPF
     MD5 check sum: 81d73d1479e654e5638b0319f0d6c2c7
     Pseudo is Projector augmented-wave + core cor, Zval =  6.0
     Generated using "atomic" code by A. Dal Corso  v.6.0 svn rev. 13079
     Shape of augmentation charge: BESSEL
     Using radial grid of 1095 points,  4 beta functions with: 
                l(1) =   0
                l(2) =   0
                l(3) =   1
                l(4) =   1
     Q(r) pseudized with 0 coefficients 


     PseudoPot. # 2 for Ru read from file:
     ./pseudo/Ru_ONCV_PBEsol-1.0.upf
     MD5 check sum: 8f986bf37b5af91b2f53a4f9afee5fd8
     Pseudo is Norm-conserving, Zval = 16.0
     Generated using ONCVPSP code by D. R. Hamann
     Using radial grid of 1440 points,  6 beta functions with: 
                l(1) =   0
                l(2) =   0
                l(3) =   1
                l(4) =   1
                l(5) =   2
                l(6) =   2

     PseudoPot. # 3 for Y  read from file:
     ./pseudo/y_pbesol_v1.4.uspp.F.UPF
     MD5 check sum: dac24993bfd4491f22c7b9129ad9e93d
     Pseudo is Ultrasoft + core correction, Zval = 11.0
     Generated by new atomic code, or converted to UPF format
     Using radial grid of  885 points,  6 beta functions with: 
                l(1) =   0
                l(2) =   0
                l(3) =   1
                l(4) =   1
                l(5) =   2
                l(6) =   2
     Q(r) pseudized with  8 coefficients,  rinner =    1.200   1.200   1.200
                                                       1.200   1.200

     atomic species   valence    mass     pseudopotential
        O              6.00    15.99940     O ( 1.00)
        Ru            16.00   101.07000     Ru( 1.00)
        Y             11.00    88.90585     Y ( 1.00)

     Starting magnetic structure 
     atomic species   magnetization
        O            0.100
        Ru           0.313
        Y            0.455

      8 Sym. Ops. (no inversion) found


                                    s                        frac. trans.

      isym =  1     identity                                     

 cryst.   s( 1) = (     1          0          0      )
                  (     0          1          0      )
                  (     0          0          1      )

 cart.    s( 1) = (  1.0000000  0.0000000  0.0000000 )
                  (  0.0000000  1.0000000  0.0000000 )
                  (  0.0000000  0.0000000  1.0000000 )


      isym =  2     180 deg rotation - cart. axis [0,0,1]        

 cryst.   s( 2) = (    -1          0          0      )
                  (     0         -1          0      )
                  (     0          0          1      )

 cart.    s( 2) = ( -1.0000000  0.0000000  0.0000000 )
                  (  0.0000000 -1.0000000  0.0000000 )
                  (  0.0000000  0.0000000  1.0000000 )


      isym =  3      90 deg rotation - cart. axis [0,0,-1]       

 cryst.   s( 3) = (     0         -1          0      )
                  (     1          0          0      )
                  (     0          0          1      )

 cart.    s( 3) = (  0.0000000  1.0000000  0.0000000 )
                  ( -1.0000000  0.0000000  0.0000000 )
                  (  0.0000000  0.0000000  1.0000000 )


      isym =  4      90 deg rotation - cart. axis [0,0,1]        

 cryst.   s( 4) = (     0          1          0      )
                  (    -1          0          0      )
                  (     0          0          1      )

 cart.    s( 4) = (  0.0000000 -1.0000000  0.0000000 )
                  (  1.0000000  0.0000000  0.0000000 )
                  (  0.0000000  0.0000000  1.0000000 )


      isym =  5     inv. 180 deg rotation - cart. axis [0,1,0]   

 cryst.   s( 5) = (     1          0          0      )
                  (     0         -1          0      )
                  (     0          0          1      )

 cart.    s( 5) = (  1.0000000  0.0000000  0.0000000 )
                  (  0.0000000 -1.0000000  0.0000000 )
                  (  0.0000000  0.0000000  1.0000000 )


      isym =  6     inv. 180 deg rotation - cart. axis [1,0,0]   

 cryst.   s( 6) = (    -1          0          0      )
                  (     0          1          0      )
                  (     0          0          1      )

 cart.    s( 6) = ( -1.0000000  0.0000000  0.0000000 )
                  (  0.0000000  1.0000000  0.0000000 )
                  (  0.0000000  0.0000000  1.0000000 )


      isym =  7     inv. 180 deg rotation - cart. axis [1,1,0]   

 cryst.   s( 7) = (     0         -1          0      )
                  (    -1          0          0      )
                  (     0          0          1      )

 cart.    s( 7) = (  0.0000000 -1.0000000  0.0000000 )
                  ( -1.0000000  0.0000000  0.0000000 )
                  (  0.0000000  0.0000000  1.0000000 )


      isym =  8     inv. 180 deg rotation - cart. axis [1,-1,0]  

 cryst.   s( 8) = (     0          1          0      )
                  (     1          0          0      )
                  (     0          0          1      )

 cart.    s( 8) = (  0.0000000  1.0000000  0.0000000 )
                  (  1.0000000  0.0000000  0.0000000 )
                  (  0.0000000  0.0000000  1.0000000 )


   Cartesian axes

     site n.     atom                  positions (alat units)
         1           Y   tau(   1) = (   0.0000000   0.0000000   0.5000000  )
         2           Ru  tau(   2) = (   0.0000000   0.0000000   0.0000000  )
         3           O   tau(   3) = (   0.0000000   0.0000000   0.3353600  )
         4           O   tau(   4) = (   0.0000000   0.0000000   0.1250000  )
         5           O   tau(   5) = (   0.0000000   0.0000000   0.3750000  )

   Crystallographic axes

     site n.     atom                  positions (cryst. coord.)
         1           Y   tau(   1) = (  0.0000000  0.0000000  0.5000000  )
         2           Ru  tau(   2) = (  0.0000000  0.0000000  0.0000000  )
         3           O   tau(   3) = (  0.0000000  0.0000000  0.3353600  )
         4           O   tau(   4) = (  0.0000000  0.0000000  0.1250000  )
         5           O   tau(   5) = (  0.0000000  0.0000000  0.3750000  )

     number of k points=    18  Marzari-Vanderbilt smearing, width (Ry)=  0.0100
                       cart. coord. in units 2pi/alat
        k(    1) = (   0.0000000   0.0000000   0.0000000), wk =   0.0080000
        k(    2) = (   0.0000000   0.0000000   0.2000000), wk =   0.0160000
        k(    3) = (   0.0000000   0.0000000   0.4000000), wk =   0.0160000
        k(    4) = (   0.0000000   0.2000000   0.2000000), wk =   0.0640000
        k(    5) = (   0.0000000   0.2000000   0.4000000), wk =   0.0640000
        k(    6) = (   0.0000000   0.4000000   0.4000000), wk =   0.0640000
        k(    7) = (   0.2000000   0.2000000   0.2000000), wk =   0.0640000
        k(    8) = (   0.2000000   0.2000000   0.4000000), wk =   0.0640000
        k(    9) = (   0.2000000   0.4000000   0.4000000), wk =   0.1280000
        k(   10) = (   0.4000000   0.4000000   0.4000000), wk =   0.0640000
        k(   11) = (   0.2000000   0.0000000   0.0000000), wk =   0.0320000
        k(   12) = (   0.4000000   0.0000000   0.0000000), wk =   0.0320000
        k(   13) = (   0.2000000  -0.2000000   0.0000000), wk =   0.0320000
        k(   14) = (   0.4000000  -0.2000000   0.0000000), wk =   0.0640000
        k(   15) = (   0.0000000   0.4000000   0.2000000), wk =   0.0640000
        k(   16) = (   0.4000000  -0.4000000   0.0000000), wk =   0.0320000
        k(   17) = (   0.4000000  -0.2000000   0.2000000), wk =   0.1280000
        k(   18) = (   0.4000000  -0.4000000   0.2000000), wk =   0.0640000

                       cryst. coord.
        k(    1) = (   0.0000000   0.0000000   0.0000000), wk =   0.0080000
        k(    2) = (   0.0000000   0.0000000   0.2000000), wk =   0.0160000
        k(    3) = (   0.0000000   0.0000000   0.4000000), wk =   0.0160000
        k(    4) = (   0.0000000   0.2000000   0.2000000), wk =   0.0640000
        k(    5) = (   0.0000000   0.2000000   0.4000000), wk =   0.0640000
        k(    6) = (   0.0000000   0.4000000   0.4000000), wk =   0.0640000
        k(    7) = (   0.2000000   0.2000000   0.2000000), wk =   0.0640000
        k(    8) = (   0.2000000   0.2000000   0.4000000), wk =   0.0640000
        k(    9) = (   0.2000000   0.4000000   0.4000000), wk =   0.1280000
        k(   10) = (   0.4000000   0.4000000   0.4000000), wk =   0.0640000
        k(   11) = (   0.2000000   0.0000000   0.0000000), wk =   0.0320000
        k(   12) = (   0.4000000   0.0000000   0.0000000), wk =   0.0320000
        k(   13) = (   0.2000000  -0.2000000   0.0000000), wk =   0.0320000
        k(   14) = (   0.4000000  -0.2000000   0.0000000), wk =   0.0640000
        k(   15) = (   0.0000000   0.4000000   0.2000000), wk =   0.0640000
        k(   16) = (   0.4000000  -0.4000000   0.0000000), wk =   0.0320000
        k(   17) = (   0.4000000  -0.2000000   0.2000000), wk =   0.1280000
        k(   18) = (   0.4000000  -0.4000000   0.2000000), wk =   0.0640000

     Dense  grid:   951323 G-vectors     FFT dimensions: ( 125, 125, 125)

     Smooth grid:   336427 G-vectors     FFT dimensions: (  90,  90,  90)

     Dynamical RAM for                 wfc:      17.96 MB

     Dynamical RAM for     wfc (w. buffer):     664.60 MB

     Dynamical RAM for           str. fact:      43.55 MB

     Dynamical RAM for           local pot:       0.00 MB

     Dynamical RAM for          nlocal pot:      38.49 MB

     Dynamical RAM for                qrad:       4.82 MB

     Dynamical RAM for          rho,v,vnew:     176.50 MB

     Dynamical RAM for               rhoin:      58.83 MB

     Dynamical RAM for            rho*nmix:     464.51 MB

     Dynamical RAM for           G-vectors:      57.00 MB

     Dynamical RAM for          h,s,v(r/c):       0.14 MB

     Dynamical RAM for          <psi|beta>:       0.03 MB

     Dynamical RAM for                 psi:      35.92 MB

     Dynamical RAM for                hpsi:      35.92 MB

     Dynamical RAM for                spsi:      35.92 MB

     Dynamical RAM for      wfcinit/wfcrot:      35.94 MB

     Dynamical RAM for           addusdens:    2758.05 MB

     Dynamical RAM for          addusforce:    2816.13 MB

     Dynamical RAM for         addusstress:    2939.50 MB

     Estimated static dynamical RAM per process >       1.16 GB

     Estimated max dynamical RAM per process >       4.49 GB

     Atomic positions and unit cell read from directory:
     ./out/aiida.save/
 
     Generating pointlists ...
     new r_m :   0.0164 (alat units)  0.3134 (a.u.) for type    1
     new r_m :   0.0516 (alat units)  0.9883 (a.u.) for type    2
     new r_m :   0.0516 (alat units)  0.9883 (a.u.) for type    3

     The initial density is read from file :
     ./out/aiida.save/charge-density


     negative rho (up, down):  4.843E-05 3.574E-05
     Starting wfcs from file
     Checking if some PAW data can be deallocated... 

     total cpu time spent up to now is        4.4 secs

     per-process dynamical memory:   943.1 Mb

     Self-consistent Calculation
[tb_dev] Currently allocated     3.81E-05 Mbytes, locked:    0 /   2
[tb_pin] Currently allocated     0.00E+00 Mbytes, locked:    0 /   0

     iteration #  1     ecut=    50.00 Ry     beta= 0.20
     Davidson diagonalization with overlap

---- Real-time Memory Report at c_bands before calling an iterative solver
          1118 MiB given to the printing process from OS
           977 MiB allocation reported by mallinfo(arena+hblkhd)
         58412 MiB available memory on the node where the printing process lives
     GPU memory used/free/total (MiB): 1398 / 14882 / 16280
------------------
     ethr =  1.00E-05,  avg # of iterations =  1.0

     Threshold (ethr) on eigenvalues was too large:
     Diagonalizing with lowered threshold

     Davidson diagonalization with overlap

---- Real-time Memory Report at c_bands before calling an iterative solver
          2150 MiB given to the printing process from OS
          1937 MiB allocation reported by mallinfo(arena+hblkhd)
         56300 MiB available memory on the node where the printing process lives
     GPU memory used/free/total (MiB): 5544 / 10736 / 16280
------------------
     ethr =  1.50E-08,  avg # of iterations =  2.1

     negative rho (up, down):  4.845E-05 3.576E-05

     total cpu time spent up to now is       12.1 secs

     total energy              =    -375.09570545 Ry
     estimated scf accuracy    <       0.00000643 Ry

     total magnetization       =     1.11 Bohr mag/cell
     absolute magnetization    =     1.75 Bohr mag/cell
[tb_dev] Currently allocated     1.09E+01 Mbytes, locked:    0 /   6
[tb_pin] Currently allocated     0.00E+00 Mbytes, locked:    0 /   0

     iteration #  2     ecut=    50.00 Ry     beta= 0.20
     Davidson diagonalization with overlap

---- Real-time Memory Report at c_bands before calling an iterative solver
          2380 MiB given to the printing process from OS
         -1998 MiB allocation reported by mallinfo(arena+hblkhd)
         56138 MiB available memory on the node where the printing process lives
     GPU memory used/free/total (MiB): 5560 / 10720 / 16280
------------------
     ethr =  1.43E-08,  avg # of iterations =  2.0

     negative rho (up, down):  4.845E-05 3.574E-05

     total cpu time spent up to now is       15.6 secs

     total energy              =    -375.09570466 Ry
     estimated scf accuracy    <       0.00007873 Ry

     total magnetization       =     1.12 Bohr mag/cell
     absolute magnetization    =     1.76 Bohr mag/cell
[tb_dev] Currently allocated     1.09E+01 Mbytes, locked:    0 /   6
[tb_pin] Currently allocated     0.00E+00 Mbytes, locked:    0 /   0

     iteration #  3     ecut=    50.00 Ry     beta= 0.20
     Davidson diagonalization with overlap

---- Real-time Memory Report at c_bands before calling an iterative solver
          2479 MiB given to the printing process from OS
         -1962 MiB allocation reported by mallinfo(arena+hblkhd)
         56101 MiB available memory on the node where the printing process lives
     GPU memory used/free/total (MiB): 5666 / 10614 / 16280
------------------
     ethr =  1.43E-08,  avg # of iterations =  1.0

     negative rho (up, down):  4.845E-05 3.573E-05

     total cpu time spent up to now is       18.9 secs

     total energy              =    -375.09570776 Ry
     estimated scf accuracy    <       0.00000032 Ry

     total magnetization       =     1.11 Bohr mag/cell
     absolute magnetization    =     1.75 Bohr mag/cell
[tb_dev] Currently allocated     1.09E+01 Mbytes, locked:    0 /   6
[tb_pin] Currently allocated     0.00E+00 Mbytes, locked:    0 /   0

     iteration #  4     ecut=    50.00 Ry     beta= 0.20
     Davidson diagonalization with overlap

---- Real-time Memory Report at c_bands before calling an iterative solver
          2572 MiB given to the printing process from OS
         -1936 MiB allocation reported by mallinfo(arena+hblkhd)
         56075 MiB available memory on the node where the printing process lives
     GPU memory used/free/total (MiB): 5666 / 10614 / 16280
------------------
     ethr =  7.11E-10,  avg # of iterations =  3.7

     negative rho (up, down):  4.847E-05 3.571E-05

     total cpu time spent up to now is       22.8 secs

     total energy              =    -375.09570846 Ry
     estimated scf accuracy    <       0.00000031 Ry

     total magnetization       =     1.11 Bohr mag/cell
     absolute magnetization    =     1.75 Bohr mag/cell
[tb_dev] Currently allocated     1.09E+01 Mbytes, locked:    0 /   6
[tb_pin] Currently allocated     0.00E+00 Mbytes, locked:    0 /   0

     iteration #  5     ecut=    50.00 Ry     beta= 0.20
     Davidson diagonalization with overlap

---- Real-time Memory Report at c_bands before calling an iterative solver
          2675 MiB given to the printing process from OS
         -1900 MiB allocation reported by mallinfo(arena+hblkhd)
         56039 MiB available memory on the node where the printing process lives
     GPU memory used/free/total (MiB): 5760 / 10520 / 16280
------------------
     ethr =  6.80E-10,  avg # of iterations =  2.0

     negative rho (up, down):  4.849E-05 3.569E-05

     total cpu time spent up to now is       26.4 secs

     total energy              =    -375.09570943 Ry
     estimated scf accuracy    <       0.00000043 Ry

     total magnetization       =     1.11 Bohr mag/cell
     absolute magnetization    =     1.75 Bohr mag/cell
[tb_dev] Currently allocated     1.09E+01 Mbytes, locked:    0 /   6
[tb_pin] Currently allocated     0.00E+00 Mbytes, locked:    0 /   0

     iteration #  6     ecut=    50.00 Ry     beta= 0.20
     Davidson diagonalization with overlap

---- Real-time Memory Report at c_bands before calling an iterative solver
          2766 MiB given to the printing process from OS
         -1875 MiB allocation reported by mallinfo(arena+hblkhd)
         56014 MiB available memory on the node where the printing process lives
     GPU memory used/free/total (MiB): 5794 / 10486 / 16280
------------------
     ethr =  6.80E-10,  avg # of iterations =  3.2

     negative rho (up, down):  4.848E-05 3.570E-05

     total cpu time spent up to now is       30.3 secs

     total energy              =    -375.09570828 Ry
     estimated scf accuracy    <       0.00000034 Ry

     total magnetization       =     1.10 Bohr mag/cell
     absolute magnetization    =     1.75 Bohr mag/cell
[tb_dev] Currently allocated     1.09E+01 Mbytes, locked:    0 /   6
[tb_pin] Currently allocated     0.00E+00 Mbytes, locked:    0 /   0

     iteration #  7     ecut=    50.00 Ry     beta= 0.20
     Davidson diagonalization with overlap

---- Real-time Memory Report at c_bands before calling an iterative solver
          2858 MiB given to the printing process from OS
         -1849 MiB allocation reported by mallinfo(arena+hblkhd)
         55988 MiB available memory on the node where the printing process lives
     GPU memory used/free/total (MiB): 5794 / 10486 / 16280
------------------
     ethr =  6.80E-10,  avg # of iterations =  2.0

     negative rho (up, down):  4.843E-05 3.577E-05

     total cpu time spent up to now is       33.9 secs

     total energy              =    -375.09570050 Ry
     estimated scf accuracy    <       0.00000021 Ry

     total magnetization       =     1.11 Bohr mag/cell
     absolute magnetization    =     1.75 Bohr mag/cell
[tb_dev] Currently allocated     1.09E+01 Mbytes, locked:    0 /   6
[tb_pin] Currently allocated     0.00E+00 Mbytes, locked:    0 /   0

     iteration #  8     ecut=    50.00 Ry     beta= 0.20
     Davidson diagonalization with overlap

---- Real-time Memory Report at c_bands before calling an iterative solver
          2947 MiB given to the printing process from OS
         -1823 MiB allocation reported by mallinfo(arena+hblkhd)
         55962 MiB available memory on the node where the printing process lives
     GPU memory used/free/total (MiB): 5794 / 10486 / 16280
------------------
     ethr =  4.77E-10,  avg # of iterations =  5.4

     negative rho (up, down):  4.842E-05 3.576E-05

     total cpu time spent up to now is       38.6 secs

     total energy              =    -375.09570470 Ry
     estimated scf accuracy    <       0.00000026 Ry

     total magnetization       =     1.12 Bohr mag/cell
     absolute magnetization    =     1.76 Bohr mag/cell
[tb_dev] Currently allocated     1.09E+01 Mbytes, locked:    0 /   6
[tb_pin] Currently allocated     0.00E+00 Mbytes, locked:    0 /   0

     iteration #  9     ecut=    50.00 Ry     beta= 0.20
     Davidson diagonalization with overlap

---- Real-time Memory Report at c_bands before calling an iterative solver
          3015 MiB given to the printing process from OS
         -1798 MiB allocation reported by mallinfo(arena+hblkhd)
         55937 MiB available memory on the node where the printing process lives
     GPU memory used/free/total (MiB): 5794 / 10486 / 16280
------------------
     ethr =  4.77E-10,  avg # of iterations =  5.9

     negative rho (up, down):  4.841E-05 3.577E-05

     total cpu time spent up to now is       43.5 secs

     total energy              =    -375.09570042 Ry
     estimated scf accuracy    <       0.00000235 Ry

     total magnetization       =     1.11 Bohr mag/cell
     absolute magnetization    =     1.75 Bohr mag/cell
[tb_dev] Currently allocated     1.09E+01 Mbytes, locked:    0 /   6
[tb_pin] Currently allocated     0.00E+00 Mbytes, locked:    0 /   0

     iteration # 10     ecut=    50.00 Ry     beta= 0.20
     Davidson diagonalization with overlap

---- Real-time Memory Report at c_bands before calling an iterative solver
          3069 MiB given to the printing process from OS
         -1772 MiB allocation reported by mallinfo(arena+hblkhd)
         55911 MiB available memory on the node where the printing process lives
     GPU memory used/free/total (MiB): 5872 / 10408 / 16280
------------------
     ethr =  4.77E-10,  avg # of iterations =  5.2

     negative rho (up, down):  4.842E-05 3.576E-05

     total cpu time spent up to now is       48.3 secs

     total energy              =    -375.09568643 Ry
     estimated scf accuracy    <       0.00000252 Ry

     total magnetization       =     1.12 Bohr mag/cell
     absolute magnetization    =     1.76 Bohr mag/cell
[tb_dev] Currently allocated     1.09E+01 Mbytes, locked:    0 /   6
[tb_pin] Currently allocated     0.00E+00 Mbytes, locked:    0 /   0

     iteration # 11     ecut=    50.00 Ry     beta= 0.20
     Davidson diagonalization with overlap

---- Real-time Memory Report at c_bands before calling an iterative solver
          3103 MiB given to the printing process from OS
         -1767 MiB allocation reported by mallinfo(arena+hblkhd)
         55907 MiB available memory on the node where the printing process lives
     GPU memory used/free/total (MiB): 5872 / 10408 / 16280
------------------
     ethr =  4.77E-10,  avg # of iterations =  8.1

     negative rho (up, down):  4.840E-05 3.576E-05

     total cpu time spent up to now is       54.0 secs

     total energy              =    -375.09563636 Ry
     estimated scf accuracy    <       0.00001296 Ry

     total magnetization       =     1.06 Bohr mag/cell
     absolute magnetization    =     1.72 Bohr mag/cell
[tb_dev] Currently allocated     1.09E+01 Mbytes, locked:    0 /   6
[tb_pin] Currently allocated     0.00E+00 Mbytes, locked:    0 /   0

     iteration # 12     ecut=    50.00 Ry     beta= 0.20
     Davidson diagonalization with overlap

---- Real-time Memory Report at c_bands before calling an iterative solver
          3129 MiB given to the printing process from OS
         -1762 MiB allocation reported by mallinfo(arena+hblkhd)
         55902 MiB available memory on the node where the printing process lives
     GPU memory used/free/total (MiB): 6210 / 10070 / 16280
------------------
     ethr =  4.77E-10,  avg # of iterations =  8.4

     negative rho (up, down):  4.839E-05 3.574E-05

     total cpu time spent up to now is       60.2 secs

     total energy              =    -375.09568419 Ry
     estimated scf accuracy    <       0.00000961 Ry

     total magnetization       =     1.13 Bohr mag/cell
     absolute magnetization    =     1.76 Bohr mag/cell
[tb_dev] Currently allocated     1.09E+01 Mbytes, locked:    0 /   6
[tb_pin] Currently allocated     0.00E+00 Mbytes, locked:    0 /   0

     iteration # 13     ecut=    50.00 Ry     beta= 0.20
     Davidson diagonalization with overlap

---- Real-time Memory Report at c_bands before calling an iterative solver
          3154 MiB given to the printing process from OS
         -1757 MiB allocation reported by mallinfo(arena+hblkhd)
         55898 MiB available memory on the node where the printing process lives
     GPU memory used/free/total (MiB): 6378 / 9902 / 16280
------------------
     ethr =  4.77E-10,  avg # of iterations =  7.5

     negative rho (up, down):  4.839E-05 3.576E-05

     total cpu time spent up to now is       65.5 secs

     total energy              =    -375.09569152 Ry
     estimated scf accuracy    <       0.00002752 Ry

     total magnetization       =     1.14 Bohr mag/cell
     absolute magnetization    =     1.77 Bohr mag/cell
[tb_dev] Currently allocated     1.09E+01 Mbytes, locked:    0 /   6
[tb_pin] Currently allocated     0.00E+00 Mbytes, locked:    0 /   0

     iteration # 14     ecut=    50.00 Ry     beta= 0.20
     Davidson diagonalization with overlap

---- Real-time Memory Report at c_bands before calling an iterative solver
          3180 MiB given to the printing process from OS
         -1752 MiB allocation reported by mallinfo(arena+hblkhd)
         55892 MiB available memory on the node where the printing process lives
     GPU memory used/free/total (MiB): 6378 / 9902 / 16280
------------------
     ethr =  4.77E-10,  avg # of iterations =  2.1

     negative rho (up, down):  4.841E-05 3.575E-05

     total cpu time spent up to now is       69.2 secs

     total energy              =    -375.09569539 Ry
     estimated scf accuracy    <       0.00002350 Ry

     total magnetization       =     1.14 Bohr mag/cell
     absolute magnetization    =     1.77 Bohr mag/cell
[tb_dev] Currently allocated     1.09E+01 Mbytes, locked:    0 /   6
[tb_pin] Currently allocated     0.00E+00 Mbytes, locked:    0 /   0

     iteration # 15     ecut=    50.00 Ry     beta= 0.20
     Davidson diagonalization with overlap

---- Real-time Memory Report at c_bands before calling an iterative solver
          3205 MiB given to the printing process from OS
         -1747 MiB allocation reported by mallinfo(arena+hblkhd)
         55888 MiB available memory on the node where the printing process lives
     GPU memory used/free/total (MiB): 6378 / 9902 / 16280
------------------
     ethr =  4.77E-10,  avg # of iterations =  5.2

     negative rho (up, down):  4.842E-05 3.576E-05

     total cpu time spent up to now is       73.8 secs

     total energy              =    -375.09569760 Ry
     estimated scf accuracy    <       0.00001483 Ry

     total magnetization       =     1.14 Bohr mag/cell
     absolute magnetization    =     1.77 Bohr mag/cell
[tb_dev] Currently allocated     1.09E+01 Mbytes, locked:    0 /   6
[tb_pin] Currently allocated     0.00E+00 Mbytes, locked:    0 /   0

     iteration # 16     ecut=    50.00 Ry     beta= 0.20
     Davidson diagonalization with overlap

---- Real-time Memory Report at c_bands before calling an iterative solver
          3231 MiB given to the printing process from OS
         -1742 MiB allocation reported by mallinfo(arena+hblkhd)
         55883 MiB available memory on the node where the printing process lives
     GPU memory used/free/total (MiB): 6502 / 9778 / 16280
------------------
     ethr =  4.77E-10,  avg # of iterations =  7.3

     negative rho (up, down):  4.845E-05 3.576E-05

     total cpu time spent up to now is       79.1 secs

     total energy              =    -375.09568454 Ry
     estimated scf accuracy    <       0.00000556 Ry

     total magnetization       =     1.12 Bohr mag/cell
     absolute magnetization    =     1.75 Bohr mag/cell
[tb_dev] Currently allocated     1.09E+01 Mbytes, locked:    0 /   6
[tb_pin] Currently allocated     0.00E+00 Mbytes, locked:    0 /   0

     iteration # 17     ecut=    50.00 Ry     beta= 0.20
     Davidson diagonalization with overlap

---- Real-time Memory Report at c_bands before calling an iterative solver
          3256 MiB given to the printing process from OS
         -1737 MiB allocation reported by mallinfo(arena+hblkhd)
         55881 MiB available memory on the node where the printing process lives
     GPU memory used/free/total (MiB): 6614 / 9666 / 16280
------------------
     ethr =  4.77E-10,  avg # of iterations =  8.3

     negative rho (up, down):  4.842E-05 3.576E-05

     total cpu time spent up to now is       84.8 secs

     total energy              =    -375.09566434 Ry
     estimated scf accuracy    <       0.00002130 Ry

     total magnetization       =     1.06 Bohr mag/cell
     absolute magnetization    =     1.72 Bohr mag/cell
[tb_dev] Currently allocated     1.09E+01 Mbytes, locked:    0 /   6
[tb_pin] Currently allocated     0.00E+00 Mbytes, locked:    0 /   0

     iteration # 18     ecut=    50.00 Ry     beta= 0.20
     Davidson diagonalization with overlap

---- Real-time Memory Report at c_bands before calling an iterative solver
          3265 MiB given to the printing process from OS
         -1732 MiB allocation reported by mallinfo(arena+hblkhd)
         55874 MiB available memory on the node where the printing process lives
     GPU memory used/free/total (MiB): 6770 / 9510 / 16280
------------------
     ethr =  4.77E-10,  avg # of iterations =  8.2

     negative rho (up, down):  4.842E-05 3.576E-05

     total cpu time spent up to now is       90.6 secs

     total energy              =    -375.09570537 Ry
     estimated scf accuracy    <       0.00000543 Ry

     total magnetization       =     1.12 Bohr mag/cell
     absolute magnetization    =     1.75 Bohr mag/cell
[tb_dev] Currently allocated     1.09E+01 Mbytes, locked:    0 /   6
[tb_pin] Currently allocated     0.00E+00 Mbytes, locked:    0 /   0

     iteration # 19     ecut=    50.00 Ry     beta= 0.20
     Davidson diagonalization with overlap

---- Real-time Memory Report at c_bands before calling an iterative solver
          3275 MiB given to the printing process from OS
         -1727 MiB allocation reported by mallinfo(arena+hblkhd)
         55871 MiB available memory on the node where the printing process lives
     GPU memory used/free/total (MiB): 6770 / 9510 / 16280
------------------
     ethr =  4.77E-10,  avg # of iterations =  1.0

     negative rho (up, down):  4.842E-05 3.576E-05

     total cpu time spent up to now is       94.0 secs

     total energy              =    -375.09570055 Ry
     estimated scf accuracy    <       0.00000542 Ry

     total magnetization       =     1.12 Bohr mag/cell
     absolute magnetization    =     1.75 Bohr mag/cell
[tb_dev] Currently allocated     1.09E+01 Mbytes, locked:    0 /   6
[tb_pin] Currently allocated     0.00E+00 Mbytes, locked:    0 /   0

     iteration # 20     ecut=    50.00 Ry     beta= 0.20
     Davidson diagonalization with overlap

---- Real-time Memory Report at c_bands before calling an iterative solver
          3284 MiB given to the printing process from OS
         -1722 MiB allocation reported by mallinfo(arena+hblkhd)
         55865 MiB available memory on the node where the printing process lives
     GPU memory used/free/total (MiB): 6770 / 9510 / 16280
------------------
     ethr =  4.77E-10,  avg # of iterations =  5.0

     negative rho (up, down):  4.844E-05 3.576E-05

     total cpu time spent up to now is       98.7 secs

     total energy              =    -375.09569161 Ry
     estimated scf accuracy    <       0.00000722 Ry

     total magnetization       =     1.13 Bohr mag/cell
     absolute magnetization    =     1.76 Bohr mag/cell
[tb_dev] Currently allocated     1.09E+01 Mbytes, locked:    0 /   6
[tb_pin] Currently allocated     0.00E+00 Mbytes, locked:    0 /   0

     iteration # 21     ecut=    50.00 Ry     beta= 0.20
     Davidson diagonalization with overlap

---- Real-time Memory Report at c_bands before calling an iterative solver
          3294 MiB given to the printing process from OS
         -1717 MiB allocation reported by mallinfo(arena+hblkhd)
         55861 MiB available memory on the node where the printing process lives
     GPU memory used/free/total (MiB): 6770 / 9510 / 16280
------------------
     ethr =  4.77E-10,  avg # of iterations =  7.6

     negative rho (up, down):  4.847E-05 3.576E-05

     total cpu time spent up to now is      104.3 secs

     total energy              =    -375.09570418 Ry
     estimated scf accuracy    <       0.00000886 Ry

     total magnetization       =     1.09 Bohr mag/cell
     absolute magnetization    =     1.73 Bohr mag/cell
[tb_dev] Currently allocated     1.09E+01 Mbytes, locked:    0 /   6
[tb_pin] Currently allocated     0.00E+00 Mbytes, locked:    0 /   0

     iteration # 22     ecut=    50.00 Ry     beta= 0.20
     Davidson diagonalization with overlap

---- Real-time Memory Report at c_bands before calling an iterative solver
          3304 MiB given to the printing process from OS
         -1712 MiB allocation reported by mallinfo(arena+hblkhd)
         55858 MiB available memory on the node where the printing process lives
     GPU memory used/free/total (MiB): 6770 / 9510 / 16280
------------------
     ethr =  4.77E-10,  avg # of iterations =  7.9

     negative rho (up, down):  4.846E-05 3.576E-05

     total cpu time spent up to now is      109.9 secs

     total energy              =    -375.09572485 Ry
     estimated scf accuracy    <       0.00006400 Ry

     total magnetization       =     1.02 Bohr mag/cell
     absolute magnetization    =     1.71 Bohr mag/cell
[tb_dev] Currently allocated     1.09E+01 Mbytes, locked:    0 /   6
[tb_pin] Currently allocated     0.00E+00 Mbytes, locked:    0 /   0

     iteration # 23     ecut=    50.00 Ry     beta= 0.20
     Davidson diagonalization with overlap

---- Real-time Memory Report at c_bands before calling an iterative solver
          3310 MiB given to the printing process from OS
         -1706 MiB allocation reported by mallinfo(arena+hblkhd)
         55850 MiB available memory on the node where the printing process lives
     GPU memory used/free/total (MiB): 6770 / 9510 / 16280
------------------
     ethr =  4.77E-10,  avg # of iterations =  5.0

     negative rho (up, down):  4.845E-05 3.575E-05

     total cpu time spent up to now is      114.6 secs

     total energy              =    -375.09566997 Ry
     estimated scf accuracy    <       0.00003676 Ry

     total magnetization       =     1.04 Bohr mag/cell
     absolute magnetization    =     1.72 Bohr mag/cell
[tb_dev] Currently allocated     1.09E+01 Mbytes, locked:    0 /   6
[tb_pin] Currently allocated     0.00E+00 Mbytes, locked:    0 /   0

     iteration # 24     ecut=    50.00 Ry     beta= 0.20
     Davidson diagonalization with overlap

---- Real-time Memory Report at c_bands before calling an iterative solver
          3315 MiB given to the printing process from OS
         -1701 MiB allocation reported by mallinfo(arena+hblkhd)
         55842 MiB available memory on the node where the printing process lives
     GPU memory used/free/total (MiB): 6770 / 9510 / 16280
------------------
     ethr =  4.77E-10,  avg # of iterations =  8.2

     negative rho (up, down):  4.844E-05 3.574E-05

     total cpu time spent up to now is      120.4 secs

     total energy              =    -375.09570261 Ry
     estimated scf accuracy    <       0.00000577 Ry

     total magnetization       =     1.11 Bohr mag/cell
     absolute magnetization    =     1.75 Bohr mag/cell
[tb_dev] Currently allocated     1.09E+01 Mbytes, locked:    0 /   6
[tb_pin] Currently allocated     0.00E+00 Mbytes, locked:    0 /   0

     iteration # 25     ecut=    50.00 Ry     beta= 0.20
     Davidson diagonalization with overlap

---- Real-time Memory Report at c_bands before calling an iterative solver
          3321 MiB given to the printing process from OS
         -1695 MiB allocation reported by mallinfo(arena+hblkhd)
         55841 MiB available memory on the node where the printing process lives
     GPU memory used/free/total (MiB): 6770 / 9510 / 16280
------------------
     ethr =  4.77E-10,  avg # of iterations =  5.2

     negative rho (up, down):  4.842E-05 3.575E-05

     total cpu time spent up to now is      125.1 secs

     total energy              =    -375.09569448 Ry
     estimated scf accuracy    <       0.00000589 Ry

     total magnetization       =     1.12 Bohr mag/cell
     absolute magnetization    =     1.75 Bohr mag/cell
[tb_dev] Currently allocated     1.09E+01 Mbytes, locked:    0 /   6
[tb_pin] Currently allocated     0.00E+00 Mbytes, locked:    0 /   0

     iteration # 26     ecut=    50.00 Ry     beta= 0.20
     Davidson diagonalization with overlap

---- Real-time Memory Report at c_bands before calling an iterative solver
          3326 MiB given to the printing process from OS
         -1689 MiB allocation reported by mallinfo(arena+hblkhd)
         55835 MiB available memory on the node where the printing process lives
     GPU memory used/free/total (MiB): 6770 / 9510 / 16280
------------------
     ethr =  4.77E-10,  avg # of iterations =  6.6

     negative rho (up, down):  4.841E-05 3.575E-05

     total cpu time spent up to now is      130.2 secs

     total energy              =    -375.09569942 Ry
     estimated scf accuracy    <       0.00001055 Ry

     total magnetization       =     1.14 Bohr mag/cell
     absolute magnetization    =     1.77 Bohr mag/cell
[tb_dev] Currently allocated     1.09E+01 Mbytes, locked:    0 /   6
[tb_pin] Currently allocated     0.00E+00 Mbytes, locked:    0 /   0

     iteration # 27     ecut=    50.00 Ry     beta= 0.20
     Davidson diagonalization with overlap

---- Real-time Memory Report at c_bands before calling an iterative solver
          3331 MiB given to the printing process from OS
         -1684 MiB allocation reported by mallinfo(arena+hblkhd)
         55828 MiB available memory on the node where the printing process lives
     GPU memory used/free/total (MiB): 6770 / 9510 / 16280
------------------
     ethr =  4.77E-10,  avg # of iterations =  1.0

     negative rho (up, down):  4.841E-05 3.575E-05

     total cpu time spent up to now is      133.6 secs

     total energy              =    -375.09569268 Ry
     estimated scf accuracy    <       0.00001039 Ry

     total magnetization       =     1.13 Bohr mag/cell
     absolute magnetization    =     1.77 Bohr mag/cell
[tb_dev] Currently allocated     1.09E+01 Mbytes, locked:    0 /   6
[tb_pin] Currently allocated     0.00E+00 Mbytes, locked:    0 /   0

     iteration # 28     ecut=    50.00 Ry     beta= 0.20
     Davidson diagonalization with overlap

---- Real-time Memory Report at c_bands before calling an iterative solver
          3337 MiB given to the printing process from OS
         -1678 MiB allocation reported by mallinfo(arena+hblkhd)
         55821 MiB available memory on the node where the printing process lives
     GPU memory used/free/total (MiB): 6770 / 9510 / 16280
------------------
     ethr =  4.77E-10,  avg # of iterations =  5.1

     negative rho (up, down):  4.842E-05 3.576E-05

     total cpu time spent up to now is      138.3 secs

     total energy              =    -375.09569821 Ry
     estimated scf accuracy    <       0.00001767 Ry

     total magnetization       =     1.14 Bohr mag/cell
     absolute magnetization    =     1.77 Bohr mag/cell
[tb_dev] Currently allocated     1.09E+01 Mbytes, locked:    0 /   6
[tb_pin] Currently allocated     0.00E+00 Mbytes, locked:    0 /   0

     iteration # 29     ecut=    50.00 Ry     beta= 0.20
     Davidson diagonalization with overlap

---- Real-time Memory Report at c_bands before calling an iterative solver
          3342 MiB given to the printing process from OS
         -1673 MiB allocation reported by mallinfo(arena+hblkhd)
         55818 MiB available memory on the node where the printing process lives
     GPU memory used/free/total (MiB): 6770 / 9510 / 16280
------------------
     ethr =  4.77E-10,  avg # of iterations =  5.0

     negative rho (up, down):  4.843E-05 3.577E-05

     total cpu time spent up to now is      143.0 secs

     total energy              =    -375.09569923 Ry
     estimated scf accuracy    <       0.00000912 Ry

     total magnetization       =     1.13 Bohr mag/cell
     absolute magnetization    =     1.76 Bohr mag/cell
[tb_dev] Currently allocated     1.09E+01 Mbytes, locked:    0 /   6
[tb_pin] Currently allocated     0.00E+00 Mbytes, locked:    0 /   0

     iteration # 30     ecut=    50.00 Ry     beta= 0.20
     Davidson diagonalization with overlap

---- Real-time Memory Report at c_bands before calling an iterative solver
          3348 MiB given to the printing process from OS
         -1667 MiB allocation reported by mallinfo(arena+hblkhd)
         55814 MiB available memory on the node where the printing process lives
     GPU memory used/free/total (MiB): 6770 / 9510 / 16280
------------------
     ethr =  4.77E-10,  avg # of iterations =  7.6

     negative rho (up, down):  4.843E-05 3.577E-05

     total cpu time spent up to now is      148.5 secs

     total energy              =    -375.09570675 Ry
     estimated scf accuracy    <       0.00000545 Ry

     total magnetization       =     1.11 Bohr mag/cell
     absolute magnetization    =     1.75 Bohr mag/cell
[tb_dev] Currently allocated     1.09E+01 Mbytes, locked:    0 /   6
[tb_pin] Currently allocated     0.00E+00 Mbytes, locked:    0 /   0

     iteration # 31     ecut=    50.00 Ry     beta= 0.20
     Davidson diagonalization with overlap

---- Real-time Memory Report at c_bands before calling an iterative solver
          3353 MiB given to the printing process from OS
         -1662 MiB allocation reported by mallinfo(arena+hblkhd)
         55808 MiB available memory on the node where the printing process lives
     GPU memory used/free/total (MiB): 6770 / 9510 / 16280
------------------
     ethr =  4.77E-10,  avg # of iterations =  2.8

     negative rho (up, down):  4.843E-05 3.577E-05

     total cpu time spent up to now is      152.3 secs

     total energy              =    -375.09570820 Ry
     estimated scf accuracy    <       0.00000542 Ry

     total magnetization       =     1.11 Bohr mag/cell
     absolute magnetization    =     1.75 Bohr mag/cell
[tb_dev] Currently allocated     1.09E+01 Mbytes, locked:    0 /   6
[tb_pin] Currently allocated     0.00E+00 Mbytes, locked:    0 /   0

     iteration # 32     ecut=    50.00 Ry     beta= 0.20
     Davidson diagonalization with overlap

---- Real-time Memory Report at c_bands before calling an iterative solver
          3369 MiB given to the printing process from OS
         -1656 MiB allocation reported by mallinfo(arena+hblkhd)
         55799 MiB available memory on the node where the printing process lives
     GPU memory used/free/total (MiB): 6770 / 9510 / 16280
------------------
     ethr =  4.77E-10,  avg # of iterations =  4.1

     negative rho (up, down):  4.846E-05 3.579E-05

     total cpu time spent up to now is      156.5 secs

     total energy              =    -375.09568292 Ry
     estimated scf accuracy    <       0.00000556 Ry

     total magnetization       =     1.11 Bohr mag/cell
     absolute magnetization    =     1.75 Bohr mag/cell
[tb_dev] Currently allocated     1.09E+01 Mbytes, locked:    0 /   6
[tb_pin] Currently allocated     0.00E+00 Mbytes, locked:    0 /   0

     iteration # 33     ecut=    50.00 Ry     beta= 0.20
     Davidson diagonalization with overlap

---- Real-time Memory Report at c_bands before calling an iterative solver
          3375 MiB given to the printing process from OS
         -1651 MiB allocation reported by mallinfo(arena+hblkhd)
         55796 MiB available memory on the node where the printing process lives
     GPU memory used/free/total (MiB): 6770 / 9510 / 16280
------------------
     ethr =  4.77E-10,  avg # of iterations =  8.2

     negative rho (up, down):  4.843E-05 3.578E-05

     total cpu time spent up to now is      162.3 secs

     total energy              =    -375.09565313 Ry
     estimated scf accuracy    <       0.00005349 Ry

     total magnetization       =     1.02 Bohr mag/cell
     absolute magnetization    =     1.71 Bohr mag/cell
[tb_dev] Currently allocated     1.09E+01 Mbytes, locked:    0 /   6
[tb_pin] Currently allocated     0.00E+00 Mbytes, locked:    0 /   0

     iteration # 34     ecut=    50.00 Ry     beta= 0.20
     Davidson diagonalization with overlap

---- Real-time Memory Report at c_bands before calling an iterative solver
          3381 MiB given to the printing process from OS
         -1645 MiB allocation reported by mallinfo(arena+hblkhd)
         55792 MiB available memory on the node where the printing process lives
     GPU memory used/free/total (MiB): 6770 / 9510 / 16280
------------------
     ethr =  4.77E-10,  avg # of iterations =  8.2

     negative rho (up, down):  4.842E-05 3.577E-05

     total cpu time spent up to now is      168.1 secs

     total energy              =    -375.09570259 Ry
     estimated scf accuracy    <       0.00000577 Ry

     total magnetization       =     1.11 Bohr mag/cell
     absolute magnetization    =     1.74 Bohr mag/cell
[tb_dev] Currently allocated     1.09E+01 Mbytes, locked:    0 /   6
[tb_pin] Currently allocated     0.00E+00 Mbytes, locked:    0 /   0

     iteration # 35     ecut=    50.00 Ry     beta= 0.20
     Davidson diagonalization with overlap

---- Real-time Memory Report at c_bands before calling an iterative solver
          3386 MiB given to the printing process from OS
         -1640 MiB allocation reported by mallinfo(arena+hblkhd)
         55786 MiB available memory on the node where the printing process lives
     GPU memory used/free/total (MiB): 6770 / 9510 / 16280
------------------
     ethr =  4.77E-10,  avg # of iterations =  5.4

     negative rho (up, down):  4.841E-05 3.577E-05

     total cpu time spent up to now is      172.9 secs

     total energy              =    -375.09569959 Ry
     estimated scf accuracy    <       0.00000565 Ry

     total magnetization       =     1.12 Bohr mag/cell
     absolute magnetization    =     1.75 Bohr mag/cell
[tb_dev] Currently allocated     1.09E+01 Mbytes, locked:    0 /   6
[tb_pin] Currently allocated     0.00E+00 Mbytes, locked:    0 /   0

     iteration # 36     ecut=    50.00 Ry     beta= 0.20
     Davidson diagonalization with overlap

---- Real-time Memory Report at c_bands before calling an iterative solver
          3392 MiB given to the printing process from OS
         -1634 MiB allocation reported by mallinfo(arena+hblkhd)
         55776 MiB available memory on the node where the printing process lives
     GPU memory used/free/total (MiB): 6770 / 9510 / 16280
------------------
     ethr =  4.77E-10,  avg # of iterations =  5.3

     negative rho (up, down):  4.842E-05 3.578E-05

     total cpu time spent up to now is      177.7 secs

     total energy              =    -375.09570352 Ry
     estimated scf accuracy    <       0.00000785 Ry

     total magnetization       =     1.13 Bohr mag/cell
     absolute magnetization    =     1.76 Bohr mag/cell
[tb_dev] Currently allocated     1.09E+01 Mbytes, locked:    0 /   6
[tb_pin] Currently allocated     0.00E+00 Mbytes, locked:    0 /   0

     iteration # 37     ecut=    50.00 Ry     beta= 0.20
     Davidson diagonalization with overlap

---- Real-time Memory Report at c_bands before calling an iterative solver
          3398 MiB given to the printing process from OS
         -1629 MiB allocation reported by mallinfo(arena+hblkhd)
         55774 MiB available memory on the node where the printing process lives
     GPU memory used/free/total (MiB): 6770 / 9510 / 16280
------------------
     ethr =  4.77E-10,  avg # of iterations =  5.0

     negative rho (up, down):  4.842E-05 3.577E-05

     total cpu time spent up to now is      182.4 secs

     total energy              =    -375.09570600 Ry
     estimated scf accuracy    <       0.00000560 Ry

     total magnetization       =     1.12 Bohr mag/cell
     absolute magnetization    =     1.75 Bohr mag/cell
[tb_dev] Currently allocated     1.09E+01 Mbytes, locked:    0 /   6
[tb_pin] Currently allocated     0.00E+00 Mbytes, locked:    0 /   0

     iteration # 38     ecut=    50.00 Ry     beta= 0.20
     Davidson diagonalization with overlap

---- Real-time Memory Report at c_bands before calling an iterative solver
          3403 MiB given to the printing process from OS
         -1623 MiB allocation reported by mallinfo(arena+hblkhd)
         55770 MiB available memory on the node where the printing process lives
     GPU memory used/free/total (MiB): 6770 / 9510 / 16280
------------------
     ethr =  4.77E-10,  avg # of iterations =  2.0

     negative rho (up, down):  4.841E-05 3.576E-05

     total cpu time spent up to now is      186.0 secs

     total energy              =    -375.09570156 Ry
     estimated scf accuracy    <       0.00000538 Ry

     total magnetization       =     1.12 Bohr mag/cell
     absolute magnetization    =     1.75 Bohr mag/cell
[tb_dev] Currently allocated     1.09E+01 Mbytes, locked:    0 /   6
[tb_pin] Currently allocated     0.00E+00 Mbytes, locked:    0 /   0

     iteration # 39     ecut=    50.00 Ry     beta= 0.20
     Davidson diagonalization with overlap

---- Real-time Memory Report at c_bands before calling an iterative solver
          3409 MiB given to the printing process from OS
         -1618 MiB allocation reported by mallinfo(arena+hblkhd)
         55762 MiB available memory on the node where the printing process lives
     GPU memory used/free/total (MiB): 6770 / 9510 / 16280
------------------
     ethr =  4.77E-10,  avg # of iterations =  4.8

     negative rho (up, down):  4.842E-05 3.576E-05

     total cpu time spent up to now is      190.5 secs

     total energy              =    -375.09570459 Ry
     estimated scf accuracy    <       0.00000675 Ry

     total magnetization       =     1.13 Bohr mag/cell
     absolute magnetization    =     1.76 Bohr mag/cell
[tb_dev] Currently allocated     1.09E+01 Mbytes, locked:    0 /   6
[tb_pin] Currently allocated     0.00E+00 Mbytes, locked:    0 /   0

     iteration # 40     ecut=    50.00 Ry     beta= 0.20
     Davidson diagonalization with overlap

---- Real-time Memory Report at c_bands before calling an iterative solver
          3415 MiB given to the printing process from OS
         -1612 MiB allocation reported by mallinfo(arena+hblkhd)
         55755 MiB available memory on the node where the printing process lives
     GPU memory used/free/total (MiB): 6770 / 9510 / 16280
------------------
     ethr =  4.77E-10,  avg # of iterations =  4.7

     negative rho (up, down):  4.842E-05 3.576E-05

     total cpu time spent up to now is      194.8 secs

     total energy              =    -375.09570433 Ry
     estimated scf accuracy    <       0.00000542 Ry

     total magnetization       =     1.12 Bohr mag/cell
     absolute magnetization    =     1.75 Bohr mag/cell
[tb_dev] Currently allocated     1.09E+01 Mbytes, locked:    0 /   6
[tb_pin] Currently allocated     0.00E+00 Mbytes, locked:    0 /   0

     iteration # 41     ecut=    50.00 Ry     beta= 0.20
     Davidson diagonalization with overlap

---- Real-time Memory Report at c_bands before calling an iterative solver
          3420 MiB given to the printing process from OS
         -1607 MiB allocation reported by mallinfo(arena+hblkhd)
         55751 MiB available memory on the node where the printing process lives
     GPU memory used/free/total (MiB): 6770 / 9510 / 16280
------------------
     ethr =  4.77E-10,  avg # of iterations =  2.5

     negative rho (up, down):  4.841E-05 3.576E-05

     total cpu time spent up to now is      198.6 secs

     total energy              =    -375.09570246 Ry
     estimated scf accuracy    <       0.00000591 Ry

     total magnetization       =     1.12 Bohr mag/cell
     absolute magnetization    =     1.76 Bohr mag/cell
[tb_dev] Currently allocated     1.09E+01 Mbytes, locked:    0 /   6
[tb_pin] Currently allocated     0.00E+00 Mbytes, locked:    0 /   0

     iteration # 42     ecut=    50.00 Ry     beta= 0.20
     Davidson diagonalization with overlap

---- Real-time Memory Report at c_bands before calling an iterative solver
          3425 MiB given to the printing process from OS
         -1601 MiB allocation reported by mallinfo(arena+hblkhd)
         55747 MiB available memory on the node where the printing process lives
     GPU memory used/free/total (MiB): 6770 / 9510 / 16280
------------------
     ethr =  4.77E-10,  avg # of iterations =  4.5

     negative rho (up, down):  4.845E-05 3.578E-05

     total cpu time spent up to now is      202.8 secs

     total energy              =    -375.09566061 Ry
     estimated scf accuracy    <       0.00000689 Ry

     total magnetization       =     1.13 Bohr mag/cell
     absolute magnetization    =     1.76 Bohr mag/cell
[tb_dev] Currently allocated     1.09E+01 Mbytes, locked:    0 /   6
[tb_pin] Currently allocated     0.00E+00 Mbytes, locked:    0 /   0

     iteration # 43     ecut=    50.00 Ry     beta= 0.20
     Davidson diagonalization with overlap

---- Real-time Memory Report at c_bands before calling an iterative solver
          3431 MiB given to the printing process from OS
         -1595 MiB allocation reported by mallinfo(arena+hblkhd)
         55740 MiB available memory on the node where the printing process lives
     GPU memory used/free/total (MiB): 6770 / 9510 / 16280
------------------
     ethr =  4.77E-10,  avg # of iterations =  9.9

     negative rho (up, down):  4.842E-05 3.577E-05

     total cpu time spent up to now is      208.9 secs

     total energy              =    -375.09566653 Ry
     estimated scf accuracy    <       0.00003388 Ry

     total magnetization       =     1.04 Bohr mag/cell
     absolute magnetization    =     1.72 Bohr mag/cell
[tb_dev] Currently allocated     1.09E+01 Mbytes, locked:    0 /   6
[tb_pin] Currently allocated     0.00E+00 Mbytes, locked:    0 /   0

     iteration # 44     ecut=    50.00 Ry     beta= 0.20
     Davidson diagonalization with overlap

---- Real-time Memory Report at c_bands before calling an iterative solver
          3436 MiB given to the printing process from OS
         -1590 MiB allocation reported by mallinfo(arena+hblkhd)
         55732 MiB available memory on the node where the printing process lives
     GPU memory used/free/total (MiB): 6770 / 9510 / 16280
------------------
     ethr =  4.77E-10,  avg # of iterations =  8.1

     negative rho (up, down):  4.840E-05 3.576E-05

     total cpu time spent up to now is      214.5 secs

     total energy              =    -375.09568104 Ry
     estimated scf accuracy    <       0.00000541 Ry

     total magnetization       =     1.11 Bohr mag/cell
     absolute magnetization    =     1.75 Bohr mag/cell
[tb_dev] Currently allocated     1.09E+01 Mbytes, locked:    0 /   6
[tb_pin] Currently allocated     0.00E+00 Mbytes, locked:    0 /   0

     iteration # 45     ecut=    50.00 Ry     beta= 0.20
     Davidson diagonalization with overlap

---- Real-time Memory Report at c_bands before calling an iterative solver
          3442 MiB given to the printing process from OS
         -1584 MiB allocation reported by mallinfo(arena+hblkhd)
         55731 MiB available memory on the node where the printing process lives
     GPU memory used/free/total (MiB): 6770 / 9510 / 16280
------------------
     ethr =  4.77E-10,  avg # of iterations =  7.8

     negative rho (up, down):  4.842E-05 3.577E-05

     total cpu time spent up to now is      220.0 secs

     total energy              =    -375.09569743 Ry
     estimated scf accuracy    <       0.00001253 Ry

     total magnetization       =     1.14 Bohr mag/cell
     absolute magnetization    =     1.77 Bohr mag/cell
[tb_dev] Currently allocated     1.09E+01 Mbytes, locked:    0 /   6
[tb_pin] Currently allocated     0.00E+00 Mbytes, locked:    0 /   0

     iteration # 46     ecut=    50.00 Ry     beta= 0.20
     Davidson diagonalization with overlap

---- Real-time Memory Report at c_bands before calling an iterative solver
          3447 MiB given to the printing process from OS
         -1579 MiB allocation reported by mallinfo(arena+hblkhd)
         55724 MiB available memory on the node where the printing process lives
     GPU memory used/free/total (MiB): 6770 / 9510 / 16280
------------------
     ethr =  4.77E-10,  avg # of iterations =  7.1

     negative rho (up, down):  4.842E-05 3.577E-05

     total cpu time spent up to now is      225.3 secs

     total energy              =    -375.09570757 Ry
     estimated scf accuracy    <       0.00000529 Ry

     total magnetization       =     1.12 Bohr mag/cell
     absolute magnetization    =     1.75 Bohr mag/cell
[tb_dev] Currently allocated     1.09E+01 Mbytes, locked:    0 /   6
[tb_pin] Currently allocated     0.00E+00 Mbytes, locked:    0 /   0

     iteration # 47     ecut=    50.00 Ry     beta= 0.20
     Davidson diagonalization with overlap

---- Real-time Memory Report at c_bands before calling an iterative solver
          3452 MiB given to the printing process from OS
         -1573 MiB allocation reported by mallinfo(arena+hblkhd)
         55720 MiB available memory on the node where the printing process lives
     GPU memory used/free/total (MiB): 6770 / 9510 / 16280
------------------
     ethr =  4.77E-10,  avg # of iterations =  3.6

     negative rho (up, down):  4.842E-05 3.578E-05

     total cpu time spent up to now is      229.3 secs

     total energy              =    -375.09570611 Ry
     estimated scf accuracy    <       0.00000528 Ry

     total magnetization       =     1.11 Bohr mag/cell
     absolute magnetization    =     1.75 Bohr mag/cell
[tb_dev] Currently allocated     1.09E+01 Mbytes, locked:    0 /   6
[tb_pin] Currently allocated     0.00E+00 Mbytes, locked:    0 /   0

     iteration # 48     ecut=    50.00 Ry     beta= 0.20
     Davidson diagonalization with overlap

---- Real-time Memory Report at c_bands before calling an iterative solver
          3458 MiB given to the printing process from OS
         -1568 MiB allocation reported by mallinfo(arena+hblkhd)
         55710 MiB available memory on the node where the printing process lives
     GPU memory used/free/total (MiB): 6770 / 9510 / 16280
------------------
     ethr =  4.77E-10,  avg # of iterations =  3.2

     negative rho (up, down):  4.842E-05 3.578E-05

     total cpu time spent up to now is      233.2 secs

     total energy              =    -375.09570770 Ry
     estimated scf accuracy    <       0.00000533 Ry

     total magnetization       =     1.12 Bohr mag/cell
     absolute magnetization    =     1.75 Bohr mag/cell
[tb_dev] Currently allocated     1.09E+01 Mbytes, locked:    0 /   6
[tb_pin] Currently allocated     0.00E+00 Mbytes, locked:    0 /   0

     iteration # 49     ecut=    50.00 Ry     beta= 0.20
     Davidson diagonalization with overlap

---- Real-time Memory Report at c_bands before calling an iterative solver
          3463 MiB given to the printing process from OS
         -1562 MiB allocation reported by mallinfo(arena+hblkhd)
         55707 MiB available memory on the node where the printing process lives
     GPU memory used/free/total (MiB): 6770 / 9510 / 16280
------------------
     ethr =  4.77E-10,  avg # of iterations =  3.9

     negative rho (up, down):  4.843E-05 3.578E-05

     total cpu time spent up to now is      237.3 secs

     total energy              =    -375.09570910 Ry
     estimated scf accuracy    <       0.00000528 Ry

     total magnetization       =     1.11 Bohr mag/cell
     absolute magnetization    =     1.75 Bohr mag/cell
[tb_dev] Currently allocated     1.09E+01 Mbytes, locked:    0 /   6
[tb_pin] Currently allocated     0.00E+00 Mbytes, locked:    0 /   0

     iteration # 50     ecut=    50.00 Ry     beta= 0.20
     Davidson diagonalization with overlap

---- Real-time Memory Report at c_bands before calling an iterative solver
          3469 MiB given to the printing process from OS
         -1557 MiB allocation reported by mallinfo(arena+hblkhd)
         55703 MiB available memory on the node where the printing process lives
     GPU memory used/free/total (MiB): 6770 / 9510 / 16280
------------------
     ethr =  4.77E-10,  avg # of iterations =  3.8

     negative rho (up, down):  4.842E-05 3.577E-05

     total cpu time spent up to now is      241.3 secs

     total energy              =    -375.09570617 Ry
     estimated scf accuracy    <       0.00000554 Ry

     total magnetization       =     1.11 Bohr mag/cell
     absolute magnetization    =     1.74 Bohr mag/cell
[tb_dev] Currently allocated     1.09E+01 Mbytes, locked:    0 /   6
[tb_pin] Currently allocated     0.00E+00 Mbytes, locked:    0 /   0

     iteration # 51     ecut=    50.00 Ry     beta= 0.20
     Davidson diagonalization with overlap

---- Real-time Memory Report at c_bands before calling an iterative solver
          3474 MiB given to the printing process from OS
         -1551 MiB allocation reported by mallinfo(arena+hblkhd)
         55698 MiB available memory on the node where the printing process lives
     GPU memory used/free/total (MiB): 6770 / 9510 / 16280
------------------
     ethr =  4.77E-10,  avg # of iterations =  4.3

     negative rho (up, down):  4.842E-05 3.577E-05

     total cpu time spent up to now is      245.5 secs

     total energy              =    -375.09570699 Ry
     estimated scf accuracy    <       0.00000526 Ry

     total magnetization       =     1.11 Bohr mag/cell
     absolute magnetization    =     1.75 Bohr mag/cell
[tb_dev] Currently allocated     1.09E+01 Mbytes, locked:    0 /   6
[tb_pin] Currently allocated     0.00E+00 Mbytes, locked:    0 /   0

     iteration # 52     ecut=    50.00 Ry     beta= 0.20
     Davidson diagonalization with overlap

---- Real-time Memory Report at c_bands before calling an iterative solver
          3490 MiB given to the printing process from OS
         -1546 MiB allocation reported by mallinfo(arena+hblkhd)
         55688 MiB available memory on the node where the printing process lives
     GPU memory used/free/total (MiB): 6770 / 9510 / 16280
------------------
     ethr =  4.77E-10,  avg # of iterations =  1.0

     negative rho (up, down):  4.845E-05 3.580E-05

     total cpu time spent up to now is      248.9 secs

     total energy              =    -375.09568660 Ry
     estimated scf accuracy    <       0.00000526 Ry

     total magnetization       =     1.11 Bohr mag/cell
     absolute magnetization    =     1.75 Bohr mag/cell
[tb_dev] Currently allocated     1.09E+01 Mbytes, locked:    0 /   6
[tb_pin] Currently allocated     0.00E+00 Mbytes, locked:    0 /   0

     iteration # 53     ecut=    50.00 Ry     beta= 0.20
     Davidson diagonalization with overlap

---- Real-time Memory Report at c_bands before calling an iterative solver
          3496 MiB given to the printing process from OS
         -1540 MiB allocation reported by mallinfo(arena+hblkhd)
         55684 MiB available memory on the node where the printing process lives
     GPU memory used/free/total (MiB): 6770 / 9510 / 16280
------------------
     ethr =  4.77E-10,  avg # of iterations =  8.2

     negative rho (up, down):  4.843E-05 3.577E-05

     total cpu time spent up to now is      254.5 secs

     total energy              =    -375.09567360 Ry
     estimated scf accuracy    <       0.00002905 Ry

     total magnetization       =     1.05 Bohr mag/cell
     absolute magnetization    =     1.72 Bohr mag/cell
[tb_dev] Currently allocated     1.09E+01 Mbytes, locked:    0 /   6
[tb_pin] Currently allocated     0.00E+00 Mbytes, locked:    0 /   0

     iteration # 54     ecut=    50.00 Ry     beta= 0.20
     Davidson diagonalization with overlap

---- Real-time Memory Report at c_bands before calling an iterative solver
          3501 MiB given to the printing process from OS
         -1535 MiB allocation reported by mallinfo(arena+hblkhd)
         55682 MiB available memory on the node where the printing process lives
     GPU memory used/free/total (MiB): 6770 / 9510 / 16280
------------------
     ethr =  4.77E-10,  avg # of iterations =  7.6

     negative rho (up, down):  4.841E-05 3.576E-05

     total cpu time spent up to now is      260.0 secs

     total energy              =    -375.09568773 Ry
     estimated scf accuracy    <       0.00000535 Ry

     total magnetization       =     1.11 Bohr mag/cell
     absolute magnetization    =     1.75 Bohr mag/cell
[tb_dev] Currently allocated     1.09E+01 Mbytes, locked:    0 /   6
[tb_pin] Currently allocated     0.00E+00 Mbytes, locked:    0 /   0

     iteration # 55     ecut=    50.00 Ry     beta= 0.20
     Davidson diagonalization with overlap

---- Real-time Memory Report at c_bands before calling an iterative solver
          3507 MiB given to the printing process from OS
         -1529 MiB allocation reported by mallinfo(arena+hblkhd)
         55675 MiB available memory on the node where the printing process lives
     GPU memory used/free/total (MiB): 6770 / 9510 / 16280
------------------
     ethr =  4.77E-10,  avg # of iterations =  7.5

     negative rho (up, down):  4.842E-05 3.578E-05

     total cpu time spent up to now is      265.5 secs

     total energy              =    -375.09569846 Ry
     estimated scf accuracy    <       0.00000948 Ry

     total magnetization       =     1.13 Bohr mag/cell
     absolute magnetization    =     1.76 Bohr mag/cell
[tb_dev] Currently allocated     1.09E+01 Mbytes, locked:    0 /   6
[tb_pin] Currently allocated     0.00E+00 Mbytes, locked:    0 /   0

     iteration # 56     ecut=    50.00 Ry     beta= 0.20
     Davidson diagonalization with overlap

---- Real-time Memory Report at c_bands before calling an iterative solver
          3513 MiB given to the printing process from OS
         -1524 MiB allocation reported by mallinfo(arena+hblkhd)
         55666 MiB available memory on the node where the printing process lives
     GPU memory used/free/total (MiB): 6770 / 9510 / 16280
------------------
     ethr =  4.77E-10,  avg # of iterations =  7.1

     negative rho (up, down):  4.842E-05 3.577E-05

     total cpu time spent up to now is      270.8 secs

     total energy              =    -375.09570545 Ry
     estimated scf accuracy    <       0.00000533 Ry

     total magnetization       =     1.11 Bohr mag/cell
     absolute magnetization    =     1.75 Bohr mag/cell
[tb_dev] Currently allocated     1.09E+01 Mbytes, locked:    0 /   6
[tb_pin] Currently allocated     0.00E+00 Mbytes, locked:    0 /   0

     iteration # 57     ecut=    50.00 Ry     beta= 0.20
     Davidson diagonalization with overlap

---- Real-time Memory Report at c_bands before calling an iterative solver
          3518 MiB given to the printing process from OS
         -1518 MiB allocation reported by mallinfo(arena+hblkhd)
         55663 MiB available memory on the node where the printing process lives
     GPU memory used/free/total (MiB): 6770 / 9510 / 16280
------------------
     ethr =  4.77E-10,  avg # of iterations =  4.4

     negative rho (up, down):  4.842E-05 3.577E-05

     total cpu time spent up to now is      275.0 secs

     total energy              =    -375.09570527 Ry
     estimated scf accuracy    <       0.00000537 Ry

     total magnetization       =     1.12 Bohr mag/cell
     absolute magnetization    =     1.75 Bohr mag/cell
[tb_dev] Currently allocated     1.09E+01 Mbytes, locked:    0 /   6
[tb_pin] Currently allocated     0.00E+00 Mbytes, locked:    0 /   0

     iteration # 58     ecut=    50.00 Ry     beta= 0.20
     Davidson diagonalization with overlap

---- Real-time Memory Report at c_bands before calling an iterative solver
          3524 MiB given to the printing process from OS
         -1513 MiB allocation reported by mallinfo(arena+hblkhd)
         55657 MiB available memory on the node where the printing process lives
     GPU memory used/free/total (MiB): 6770 / 9510 / 16280
------------------
     ethr =  4.77E-10,  avg # of iterations =  2.4

     negative rho (up, down):  4.842E-05 3.577E-05

     total cpu time spent up to now is      278.7 secs

     total energy              =    -375.09570589 Ry
     estimated scf accuracy    <       0.00000557 Ry

     total magnetization       =     1.12 Bohr mag/cell
     absolute magnetization    =     1.75 Bohr mag/cell
[tb_dev] Currently allocated     1.09E+01 Mbytes, locked:    0 /   6
[tb_pin] Currently allocated     0.00E+00 Mbytes, locked:    0 /   0

     iteration # 59     ecut=    50.00 Ry     beta= 0.20
     Davidson diagonalization with overlap

---- Real-time Memory Report at c_bands before calling an iterative solver
          3530 MiB given to the printing process from OS
         -1507 MiB allocation reported by mallinfo(arena+hblkhd)
         55653 MiB available memory on the node where the printing process lives
     GPU memory used/free/total (MiB): 6770 / 9510 / 16280
------------------
     ethr =  4.77E-10,  avg # of iterations =  1.5

     negative rho (up, down):  4.842E-05 3.577E-05

     total cpu time spent up to now is      282.3 secs

     total energy              =    -375.09570621 Ry
     estimated scf accuracy    <       0.00000536 Ry

     total magnetization       =     1.12 Bohr mag/cell
     absolute magnetization    =     1.75 Bohr mag/cell
[tb_dev] Currently allocated     1.09E+01 Mbytes, locked:    0 /   6
[tb_pin] Currently allocated     0.00E+00 Mbytes, locked:    0 /   0

     iteration # 60     ecut=    50.00 Ry     beta= 0.20
     Davidson diagonalization with overlap

---- Real-time Memory Report at c_bands before calling an iterative solver
          3535 MiB given to the printing process from OS
         -1501 MiB allocation reported by mallinfo(arena+hblkhd)
         55644 MiB available memory on the node where the printing process lives
     GPU memory used/free/total (MiB): 6770 / 9510 / 16280
------------------
     ethr =  4.77E-10,  avg # of iterations =  1.2

     negative rho (up, down):  4.841E-05 3.577E-05

     total cpu time spent up to now is      285.7 secs

     total energy              =    -375.09570466 Ry
     estimated scf accuracy    <       0.00000534 Ry

     total magnetization       =     1.12 Bohr mag/cell
     absolute magnetization    =     1.75 Bohr mag/cell
[tb_dev] Currently allocated     1.09E+01 Mbytes, locked:    0 /   6
[tb_pin] Currently allocated     0.00E+00 Mbytes, locked:    0 /   0

     iteration # 61     ecut=    50.00 Ry     beta= 0.20
     Davidson diagonalization with overlap

---- Real-time Memory Report at c_bands before calling an iterative solver
          3541 MiB given to the printing process from OS
         -1496 MiB allocation reported by mallinfo(arena+hblkhd)
         55640 MiB available memory on the node where the printing process lives
     GPU memory used/free/total (MiB): 6770 / 9510 / 16280
------------------
     ethr =  4.77E-10,  avg # of iterations =  2.7

     negative rho (up, down):  4.841E-05 3.577E-05

     total cpu time spent up to now is      289.6 secs

     total energy              =    -375.09570493 Ry
     estimated scf accuracy    <       0.00000581 Ry

     total magnetization       =     1.12 Bohr mag/cell
     absolute magnetization    =     1.76 Bohr mag/cell
[tb_dev] Currently allocated     1.09E+01 Mbytes, locked:    0 /   6
[tb_pin] Currently allocated     0.00E+00 Mbytes, locked:    0 /   0

     iteration # 62     ecut=    50.00 Ry     beta= 0.20
     Davidson diagonalization with overlap

---- Real-time Memory Report at c_bands before calling an iterative solver
          3547 MiB given to the printing process from OS
         -1490 MiB allocation reported by mallinfo(arena+hblkhd)
         55637 MiB available memory on the node where the printing process lives
     GPU memory used/free/total (MiB): 6770 / 9510 / 16280
------------------
     ethr =  4.77E-10,  avg # of iterations =  1.0

     negative rho (up, down):  4.846E-05 3.582E-05

     total cpu time spent up to now is      293.1 secs

     total energy              =    -375.09564995 Ry
     estimated scf accuracy    <       0.00000581 Ry

     total magnetization       =     1.12 Bohr mag/cell
     absolute magnetization    =     1.76 Bohr mag/cell
[tb_dev] Currently allocated     1.09E+01 Mbytes, locked:    0 /   6
[tb_pin] Currently allocated     0.00E+00 Mbytes, locked:    0 /   0

     iteration # 63     ecut=    50.00 Ry     beta= 0.20
     Davidson diagonalization with overlap

---- Real-time Memory Report at c_bands before calling an iterative solver
          3552 MiB given to the printing process from OS
         -1485 MiB allocation reported by mallinfo(arena+hblkhd)
         55630 MiB available memory on the node where the printing process lives
     GPU memory used/free/total (MiB): 6770 / 9510 / 16280
------------------
     ethr =  4.77E-10,  avg # of iterations =  9.9

     negative rho (up, down):  4.841E-05 3.577E-05

     total cpu time spent up to now is      299.2 secs

     total energy              =    -375.09558704 Ry
     estimated scf accuracy    <       0.00006432 Ry

     total magnetization       =     1.01 Bohr mag/cell
     absolute magnetization    =     1.71 Bohr mag/cell
[tb_dev] Currently allocated     1.09E+01 Mbytes, locked:    0 /   6
[tb_pin] Currently allocated     0.00E+00 Mbytes, locked:    0 /   0

     iteration # 64     ecut=    50.00 Ry     beta= 0.20
     Davidson diagonalization with overlap

---- Real-time Memory Report at c_bands before calling an iterative solver
          3557 MiB given to the printing process from OS
         -1479 MiB allocation reported by mallinfo(arena+hblkhd)
         55621 MiB available memory on the node where the printing process lives
     GPU memory used/free/total (MiB): 6770 / 9510 / 16280
------------------
     ethr =  4.77E-10,  avg # of iterations = 10.0

     negative rho (up, down):  4.838E-05 3.576E-05

     total cpu time spent up to now is      305.3 secs

     total energy              =    -375.09569056 Ry
     estimated scf accuracy    <       0.00000629 Ry

     total magnetization       =     1.12 Bohr mag/cell
     absolute magnetization    =     1.76 Bohr mag/cell
[tb_dev] Currently allocated     1.09E+01 Mbytes, locked:    0 /   6
[tb_pin] Currently allocated     0.00E+00 Mbytes, locked:    0 /   0

     iteration # 65     ecut=    50.00 Ry     beta= 0.20
     Davidson diagonalization with overlap

---- Real-time Memory Report at c_bands before calling an iterative solver
          3563 MiB given to the printing process from OS
         -1474 MiB allocation reported by mallinfo(arena+hblkhd)
         55620 MiB available memory on the node where the printing process lives
     GPU memory used/free/total (MiB): 6770 / 9510 / 16280
------------------
     ethr =  4.77E-10,  avg # of iterations =  6.5

     negative rho (up, down):  4.838E-05 3.576E-05

     total cpu time spent up to now is      310.4 secs

     total energy              =    -375.09569628 Ry
     estimated scf accuracy    <       0.00001471 Ry

     total magnetization       =     1.14 Bohr mag/cell
     absolute magnetization    =     1.77 Bohr mag/cell
[tb_dev] Currently allocated     1.09E+01 Mbytes, locked:    0 /   6
[tb_pin] Currently allocated     0.00E+00 Mbytes, locked:    0 /   0

     iteration # 66     ecut=    50.00 Ry     beta= 0.20
     Davidson diagonalization with overlap

---- Real-time Memory Report at c_bands before calling an iterative solver
          3568 MiB given to the printing process from OS
         -1468 MiB allocation reported by mallinfo(arena+hblkhd)
         55615 MiB available memory on the node where the printing process lives
     GPU memory used/free/total (MiB): 6770 / 9510 / 16280
------------------
     ethr =  4.77E-10,  avg # of iterations =  1.0

     negative rho (up, down):  4.840E-05 3.576E-05

     total cpu time spent up to now is      313.8 secs

     total energy              =    -375.09569955 Ry
     estimated scf accuracy    <       0.00001466 Ry

     total magnetization       =     1.14 Bohr mag/cell
     absolute magnetization    =     1.77 Bohr mag/cell
[tb_dev] Currently allocated     1.09E+01 Mbytes, locked:    0 /   6
[tb_pin] Currently allocated     0.00E+00 Mbytes, locked:    0 /   0

     iteration # 67     ecut=    50.00 Ry     beta= 0.20
     Davidson diagonalization with overlap

---- Real-time Memory Report at c_bands before calling an iterative solver
          3573 MiB given to the printing process from OS
         -1463 MiB allocation reported by mallinfo(arena+hblkhd)
         55606 MiB available memory on the node where the printing process lives
     GPU memory used/free/total (MiB): 6770 / 9510 / 16280
------------------
     ethr =  4.77E-10,  avg # of iterations =  5.0

     negative rho (up, down):  4.840E-05 3.576E-05

     total cpu time spent up to now is      318.5 secs

     total energy              =    -375.09570070 Ry
     estimated scf accuracy    <       0.00000793 Ry

     total magnetization       =     1.13 Bohr mag/cell
     absolute magnetization    =     1.76 Bohr mag/cell
[tb_dev] Currently allocated     1.09E+01 Mbytes, locked:    0 /   6
[tb_pin] Currently allocated     0.00E+00 Mbytes, locked:    0 /   0

     iteration # 68     ecut=    50.00 Ry     beta= 0.20
     Davidson diagonalization with overlap

---- Real-time Memory Report at c_bands before calling an iterative solver
          3579 MiB given to the printing process from OS
         -1457 MiB allocation reported by mallinfo(arena+hblkhd)
         55602 MiB available memory on the node where the printing process lives
     GPU memory used/free/total (MiB): 6770 / 9510 / 16280
------------------
     ethr =  4.77E-10,  avg # of iterations =  2.1

     negative rho (up, down):  4.842E-05 3.576E-05

     total cpu time spent up to now is      322.1 secs

     total energy              =    -375.09570140 Ry
     estimated scf accuracy    <       0.00000897 Ry

     total magnetization       =     1.13 Bohr mag/cell
     absolute magnetization    =     1.76 Bohr mag/cell
[tb_dev] Currently allocated     1.09E+01 Mbytes, locked:    0 /   6
[tb_pin] Currently allocated     0.00E+00 Mbytes, locked:    0 /   0

     iteration # 69     ecut=    50.00 Ry     beta= 0.20
     Davidson diagonalization with overlap

---- Real-time Memory Report at c_bands before calling an iterative solver
          3584 MiB given to the printing process from OS
         -1452 MiB allocation reported by mallinfo(arena+hblkhd)
         55598 MiB available memory on the node where the printing process lives
     GPU memory used/free/total (MiB): 6770 / 9510 / 16280
------------------
     ethr =  4.77E-10,  avg # of iterations =  6.6

     negative rho (up, down):  4.840E-05 3.575E-05

     total cpu time spent up to now is      327.2 secs

     total energy              =    -375.09570033 Ry
     estimated scf accuracy    <       0.00000528 Ry

     total magnetization       =     1.11 Bohr mag/cell
     absolute magnetization    =     1.75 Bohr mag/cell
[tb_dev] Currently allocated     1.09E+01 Mbytes, locked:    0 /   6
[tb_pin] Currently allocated     0.00E+00 Mbytes, locked:    0 /   0

     iteration # 70     ecut=    50.00 Ry     beta= 0.20
     Davidson diagonalization with overlap

---- Real-time Memory Report at c_bands before calling an iterative solver
          3590 MiB given to the printing process from OS
         -1446 MiB allocation reported by mallinfo(arena+hblkhd)
         55593 MiB available memory on the node where the printing process lives
     GPU memory used/free/total (MiB): 6770 / 9510 / 16280
------------------
     ethr =  4.77E-10,  avg # of iterations =  5.4

     negative rho (up, down):  4.840E-05 3.575E-05

     total cpu time spent up to now is      332.0 secs

     total energy              =    -375.09570146 Ry
     estimated scf accuracy    <       0.00000677 Ry

     total magnetization       =     1.13 Bohr mag/cell
     absolute magnetization    =     1.76 Bohr mag/cell
[tb_dev] Currently allocated     1.09E+01 Mbytes, locked:    0 /   6
[tb_pin] Currently allocated     0.00E+00 Mbytes, locked:    0 /   0

     iteration # 71     ecut=    50.00 Ry     beta= 0.20
     Davidson diagonalization with overlap

---- Real-time Memory Report at c_bands before calling an iterative solver
          3595 MiB given to the printing process from OS
         -1441 MiB allocation reported by mallinfo(arena+hblkhd)
         55584 MiB available memory on the node where the printing process lives
     GPU memory used/free/total (MiB): 6770 / 9510 / 16280
------------------
     ethr =  4.77E-10,  avg # of iterations =  3.6

     negative rho (up, down):  4.840E-05 3.575E-05

     total cpu time spent up to now is      336.0 secs

     total energy              =    -375.09570229 Ry
     estimated scf accuracy    <       0.00000785 Ry

     total magnetization       =     1.13 Bohr mag/cell
     absolute magnetization    =     1.76 Bohr mag/cell
[tb_dev] Currently allocated     1.09E+01 Mbytes, locked:    0 /   6
[tb_pin] Currently allocated     0.00E+00 Mbytes, locked:    0 /   0

     iteration # 72     ecut=    50.00 Ry     beta= 0.20
     Davidson diagonalization with overlap

---- Real-time Memory Report at c_bands before calling an iterative solver
          3601 MiB given to the printing process from OS
         -1435 MiB allocation reported by mallinfo(arena+hblkhd)
         55580 MiB available memory on the node where the printing process lives
     GPU memory used/free/total (MiB): 6770 / 9510 / 16280
------------------
     ethr =  4.77E-10,  avg # of iterations =  1.6

     negative rho (up, down):  4.848E-05 3.575E-05

     total cpu time spent up to now is      339.5 secs

     total energy              =    -375.09567070 Ry
     estimated scf accuracy    <       0.00000732 Ry

     total magnetization       =     1.13 Bohr mag/cell
     absolute magnetization    =     1.76 Bohr mag/cell
[tb_dev] Currently allocated     1.09E+01 Mbytes, locked:    0 /   6
[tb_pin] Currently allocated     0.00E+00 Mbytes, locked:    0 /   0

     iteration # 73     ecut=    50.00 Ry     beta= 0.20
     Davidson diagonalization with overlap

---- Real-time Memory Report at c_bands before calling an iterative solver
          3607 MiB given to the printing process from OS
         -1430 MiB allocation reported by mallinfo(arena+hblkhd)
         55577 MiB available memory on the node where the printing process lives
     GPU memory used/free/total (MiB): 6770 / 9510 / 16280
------------------
     ethr =  4.77E-10,  avg # of iterations =  9.2

     negative rho (up, down):  4.844E-05 3.575E-05

     total cpu time spent up to now is      345.4 secs

     total energy              =    -375.09568219 Ry
     estimated scf accuracy    <       0.00002223 Ry

     total magnetization       =     1.06 Bohr mag/cell
     absolute magnetization    =     1.72 Bohr mag/cell
[tb_dev] Currently allocated     1.09E+01 Mbytes, locked:    0 /   6
[tb_pin] Currently allocated     0.00E+00 Mbytes, locked:    0 /   0

     iteration # 74     ecut=    50.00 Ry     beta= 0.20
     Davidson diagonalization with overlap

---- Real-time Memory Report at c_bands before calling an iterative solver
          3612 MiB given to the printing process from OS
         -1424 MiB allocation reported by mallinfo(arena+hblkhd)
         55572 MiB available memory on the node where the printing process lives
     GPU memory used/free/total (MiB): 6770 / 9510 / 16280
------------------
     ethr =  4.77E-10,  avg # of iterations =  7.6

     negative rho (up, down):  4.840E-05 3.575E-05

     total cpu time spent up to now is      351.0 secs

     total energy              =    -375.09568801 Ry
     estimated scf accuracy    <       0.00000536 Ry

     total magnetization       =     1.11 Bohr mag/cell
     absolute magnetization    =     1.75 Bohr mag/cell
[tb_dev] Currently allocated     1.09E+01 Mbytes, locked:    0 /   6
[tb_pin] Currently allocated     0.00E+00 Mbytes, locked:    0 /   0

     iteration # 75     ecut=    50.00 Ry     beta= 0.20
     Davidson diagonalization with overlap

---- Real-time Memory Report at c_bands before calling an iterative solver
          3628 MiB given to the printing process from OS
         -1418 MiB allocation reported by mallinfo(arena+hblkhd)
         55562 MiB available memory on the node where the printing process lives
     GPU memory used/free/total (MiB): 6770 / 9510 / 16280
------------------
     ethr =  4.77E-10,  avg # of iterations =  7.6

     negative rho (up, down):  4.842E-05 3.575E-05

     total cpu time spent up to now is      356.5 secs

     total energy              =    -375.09570160 Ry
     estimated scf accuracy    <       0.00000958 Ry

     total magnetization       =     1.13 Bohr mag/cell
     absolute magnetization    =     1.76 Bohr mag/cell
[tb_dev] Currently allocated     1.09E+01 Mbytes, locked:    0 /   6
[tb_pin] Currently allocated     0.00E+00 Mbytes, locked:    0 /   0

     iteration # 76     ecut=    50.00 Ry     beta= 0.20
     Davidson diagonalization with overlap

---- Real-time Memory Report at c_bands before calling an iterative solver
          3634 MiB given to the printing process from OS
         -1413 MiB allocation reported by mallinfo(arena+hblkhd)
         55560 MiB available memory on the node where the printing process lives
     GPU memory used/free/total (MiB): 6770 / 9510 / 16280
------------------
     ethr =  4.77E-10,  avg # of iterations =  5.1

     negative rho (up, down):  4.842E-05 3.575E-05

     total cpu time spent up to now is      361.2 secs

     total energy              =    -375.09570556 Ry
     estimated scf accuracy    <       0.00000557 Ry

     total magnetization       =     1.12 Bohr mag/cell
     absolute magnetization    =     1.75 Bohr mag/cell
[tb_dev] Currently allocated     1.09E+01 Mbytes, locked:    0 /   6
[tb_pin] Currently allocated     0.00E+00 Mbytes, locked:    0 /   0

     iteration # 77     ecut=    50.00 Ry     beta= 0.20
     Davidson diagonalization with overlap

---- Real-time Memory Report at c_bands before calling an iterative solver
          3639 MiB given to the printing process from OS
         -1407 MiB allocation reported by mallinfo(arena+hblkhd)
         55554 MiB available memory on the node where the printing process lives
     GPU memory used/free/total (MiB): 6770 / 9510 / 16280
------------------
     ethr =  4.77E-10,  avg # of iterations =  1.4

     negative rho (up, down):  4.842E-05 3.576E-05

     total cpu time spent up to now is      364.7 secs

     total energy              =    -375.09570579 Ry
     estimated scf accuracy    <       0.00000545 Ry

     total magnetization       =     1.12 Bohr mag/cell
     absolute magnetization    =     1.75 Bohr mag/cell
[tb_dev] Currently allocated     1.09E+01 Mbytes, locked:    0 /   6
[tb_pin] Currently allocated     0.00E+00 Mbytes, locked:    0 /   0

     iteration # 78     ecut=    50.00 Ry     beta= 0.20
     Davidson diagonalization with overlap

---- Real-time Memory Report at c_bands before calling an iterative solver
          3645 MiB given to the printing process from OS
         -1402 MiB allocation reported by mallinfo(arena+hblkhd)
         55549 MiB available memory on the node where the printing process lives
     GPU memory used/free/total (MiB): 6770 / 9510 / 16280
------------------
     ethr =  4.77E-10,  avg # of iterations =  1.1

     negative rho (up, down):  4.841E-05 3.575E-05

     total cpu time spent up to now is      368.2 secs

     total energy              =    -375.09570493 Ry
     estimated scf accuracy    <       0.00000544 Ry

     total magnetization       =     1.12 Bohr mag/cell
     absolute magnetization    =     1.75 Bohr mag/cell
[tb_dev] Currently allocated     1.09E+01 Mbytes, locked:    0 /   6
[tb_pin] Currently allocated     0.00E+00 Mbytes, locked:    0 /   0

     iteration # 79     ecut=    50.00 Ry     beta= 0.20
     Davidson diagonalization with overlap

---- Real-time Memory Report at c_bands before calling an iterative solver
          3651 MiB given to the printing process from OS
         -1396 MiB allocation reported by mallinfo(arena+hblkhd)
         55516 MiB available memory on the node where the printing process lives
     GPU memory used/free/total (MiB): 6770 / 9510 / 16280
------------------
     ethr =  4.77E-10,  avg # of iterations =  2.0

     negative rho (up, down):  4.841E-05 3.576E-05

     total cpu time spent up to now is      371.8 secs

     total energy              =    -375.09570363 Ry
     estimated scf accuracy    <       0.00000574 Ry

     total magnetization       =     1.12 Bohr mag/cell
     absolute magnetization    =     1.76 Bohr mag/cell
[tb_dev] Currently allocated     1.09E+01 Mbytes, locked:    0 /   6
[tb_pin] Currently allocated     0.00E+00 Mbytes, locked:    0 /   0

     iteration # 80     ecut=    50.00 Ry     beta= 0.20
     Davidson diagonalization with overlap

---- Real-time Memory Report at c_bands before calling an iterative solver
          3656 MiB given to the printing process from OS
         -1391 MiB allocation reported by mallinfo(arena+hblkhd)
         55516 MiB available memory on the node where the printing process lives
     GPU memory used/free/total (MiB): 6770 / 9510 / 16280
------------------
     ethr =  4.77E-10,  avg # of iterations =  3.4

     negative rho (up, down):  4.841E-05 3.576E-05

     total cpu time spent up to now is      375.8 secs

     total energy              =    -375.09570514 Ry
     estimated scf accuracy    <       0.00000628 Ry

     total magnetization       =     1.12 Bohr mag/cell
     absolute magnetization    =     1.76 Bohr mag/cell

     End of self-consistent calculation

     convergence NOT achieved after  80 iterations: stopping

     Writing config to output data dir ./out/aiida.save/
 
     init_run     :     21.26s CPU      3.76s WALL (       1 calls)
     electrons    :    933.15s CPU    371.75s WALL (       1 calls)

     Called by init_run:
     wfcinit      :      0.06s CPU      0.06s WALL (       1 calls)
                                        0.06s GPU  (       1 calls)
     potinit      :      7.21s CPU      1.00s WALL (       1 calls)
     hinit0       :      7.02s CPU      1.13s WALL (       1 calls)

     Called by electrons:
     c_bands      :    262.70s CPU    244.26s WALL (      81 calls)
     sum_band     :     61.59s CPU     62.91s WALL (      81 calls)
     v_of_rho     :     45.69s CPU     11.17s WALL (      81 calls)
     v_h          :     18.17s CPU      1.71s WALL (      81 calls)
     v_xc         :     27.51s CPU      9.46s WALL (      81 calls)
     newd         :    120.12s CPU     11.15s WALL (      81 calls)
                                       11.14s GPU  (      81 calls)
     PAW_pot      :    204.07s CPU     19.00s WALL (      81 calls)
     mix_rho      :    183.43s CPU     17.96s WALL (      81 calls)

     Called by c_bands:
     init_us_2    :      6.26s CPU      7.67s WALL (    5832 calls)
     init_us_2:gp :      6.11s CPU      7.55s WALL (    5832 calls)
     cegterg      :    210.30s CPU    200.89s WALL (    2916 calls)

     Called by sum_band:
     sum_band:wei :      0.10s CPU      0.10s WALL (      81 calls)
                                        0.10s GPU  (      81 calls)
     sum_band:loo :     39.28s CPU     40.50s WALL (      81 calls)
                                       40.50s GPU  (      81 calls)
     sum_band:buf :     16.50s CPU     16.70s WALL (    2916 calls)
                                       16.68s GPU  (    2916 calls)
     sum_band:ini :      2.52s CPU      2.78s WALL (    2916 calls)
                                        2.76s GPU  (    2916 calls)
     sum_band:cal :      0.12s CPU      2.56s WALL (    2916 calls)
                                        1.11s GPU  (    2916 calls)
     sum_band:bec :      0.54s CPU      0.58s WALL (    2916 calls)
                                        0.55s GPU  (    2916 calls)
     addusdens    :     12.79s CPU     12.86s WALL (      81 calls)
                                       12.86s GPU  (      81 calls)
     addusd:skk   :      0.03s CPU      0.03s WALL (     162 calls)
                                        0.03s GPU  (     162 calls)

     Called by *egterg:
     cdiaghg      :     34.64s CPU     39.35s WALL (   17105 calls)
                                       39.22s GPU  (   17105 calls)
     cegterg:over :      8.92s CPU      9.18s WALL (   14261 calls)
     cegterg:upda :      6.05s CPU      6.43s WALL (   14261 calls)
     cegterg:last :      3.53s CPU      3.88s WALL (    7248 calls)
     h_psi        :    140.10s CPU    124.80s WALL (   17177 calls)
                                      124.48s GPU  (   17177 calls)
     s_psi        :      2.02s CPU      5.23s WALL (   17177 calls)
                                        4.52s GPU  (   17177 calls)
     g_psi        :      0.11s CPU      0.96s WALL (   14261 calls)
                                        0.87s GPU  (   14261 calls)

     Called by h_psi:
     h_psi:calbec :      0.68s CPU      6.83s WALL (   17177 calls)
                                        6.73s GPU  (   17177 calls)
     vloc_psi     :    119.98s CPU    109.94s WALL (   17177 calls)
                                      109.83s GPU  (   17177 calls)
     add_vuspsi   :      2.45s CPU      5.58s WALL (   17177 calls)
                                        5.47s GPU  (   17177 calls)

     General routines
     calbec       :      0.60s CPU      0.62s WALL (   20093 calls)
     fft          :      6.23s CPU      1.44s WALL (    2025 calls)
                                        1.03s GPU  (    1863 calls)
     ffts         :      0.45s CPU      0.16s WALL (     324 calls)
                                        0.04s GPU  (     162 calls)
     fftw         :      1.35s CPU     89.71s WALL (   54140 calls)
                                       89.29s GPU  (   54140 calls)
     interpolate  :     23.23s CPU      2.04s WALL (     162 calls)
     davcio       :      0.05s CPU      1.23s WALL (      90 calls)
 
     Parallel routines

     PAW routines
     PAW_pot      :    204.07s CPU     19.00s WALL (      81 calls)
     PAW_symme    :      0.05s CPU      0.01s WALL (     161 calls)
 
     PWSCF        :  15m57.07s CPU   6m16.96s WALL

 
   This run was terminated on:  17:43:20  23Oct2023            

=------------------------------------------------------------------------------=
   JOB DONE.
=------------------------------------------------------------------------------=
