
     Program PWSCF v.7.2 starts on 23Oct2023 at 20:41:28 

     This program is part of the open-source Quantum ESPRESSO suite
     for quantum simulation of materials; please cite
         "P. Giannozzi et al., J. Phys.:Condens. Matter 21 395502 (2009);
         "P. Giannozzi et al., J. Phys.:Condens. Matter 29 465901 (2017);
         "P. Giannozzi et al., J. Chem. Phys. 152 154105 (2020);
          URL http://www.quantum-espresso.org", 
     in publications or presentations arising from this work. More details at
     http://www.quantum-espresso.org/quote

     Parallel version (MPI & OpenMP), running on      12 processor cores
     Number of MPI processes:                 1
     Threads/MPI process:                    12

     MPI processes distributed on     1 nodes
     60280 MiB available memory on the printing compute node when the environment starts
 
     Reading input from aiida.in

     Current dimensions of program PWSCF are:
     Max number of different atomic species (ntypx) = 10
     Max number of k-points (npk) =  40000
     Max angular momentum in pseudopotentials (lmaxx) =  4
     Message from routine setup:
     using ibrav=0 with symmetry is DISCOURAGED, use correct ibrav instead
 
     Subspace diagonalization in iterative solution of the eigenvalue problem:
     a serial algorithm will be used

 
     G-vector sticks info
     --------------------
     sticks:   dense  smooth     PW     G-vecs:    dense   smooth      PW
     Sum        3421    1713    495               148683    52643    8221
 
     Using Slab Decomposition
 


     bravais-lattice index     =            0
     lattice parameter (alat)  =       9.4980  a.u.
     unit-cell volume          =     837.6793 (a.u.)^3
     number of atoms/cell      =            8
     number of atomic types    =            3
     number of electrons       =        52.00
     number of Kohn-Sham states=           31
     kinetic-energy cutoff     =      60.0000  Ry
     charge density cutoff     =     480.0000  Ry
     scf convergence threshold =      1.6E-09
     mixing beta               =       0.2000
     number of iterations used =            8  plain     mixing
     Exchange-correlation= PBESOL
                           (   1   4  10   8   0   0   0)

     GPU acceleration is ACTIVE.


     GPU used by master process:

        Device Number: 0
        Device name: Tesla P100-PCIE-16GB
        Compute capability : 60
        Ratio of single to double precision performance  : 2
        Memory Clock Rate (KHz): 715000
        Memory Bus Width (bits): 4096
        Peak Memory Bandwidth (GB/s): 732.16

     celldm(1)=   9.497978  celldm(2)=   0.000000  celldm(3)=   0.000000
     celldm(4)=   0.000000  celldm(5)=   0.000000  celldm(6)=   0.000000

     crystal axes: (cart. coord. in units of alat)
               a(1) = (   0.747297   0.431452   0.505367 )  
               a(2) = (  -0.747297   0.431452   0.505367 )  
               a(3) = (   0.000000  -0.862904   0.505367 )  

     reciprocal axes: (cart. coord. in units 2 pi/alat)
               b(1) = (  0.669078  0.386292  0.659586 )  
               b(2) = ( -0.669078  0.386292  0.659586 )  
               b(3) = (  0.000000 -0.772585  0.659586 )  


     PseudoPot. # 1 for As read from file:
     ./pseudo/As.pbesol-n-rrkjus_psl.0.2.UPF
     MD5 check sum: 1aa86e6aa4f77befd3aa87cac6788838
     Pseudo is Ultrasoft + core correction, Zval =  5.0
     Generated using "atomic" code by A. Dal Corso  v.6.0 svn rev. 13079
     Using radial grid of 1209 points,  4 beta functions with: 
                l(1) =   0
                l(2) =   0
                l(3) =   1
                l(4) =   1
     Q(r) pseudized with 0 coefficients 


     PseudoPot. # 2 for F  read from file:
     ./pseudo/f_pbesol_v1.4.uspp.F.UPF
     MD5 check sum: d2815ecb49b17b99c5724ffd2f9bbd8d
     Pseudo is Ultrasoft, Zval =  7.0
     Generated by new atomic code, or converted to UPF format
     Using radial grid of  799 points,  4 beta functions with: 
                l(1) =   0
                l(2) =   0
                l(3) =   1
                l(4) =   1
     Q(r) pseudized with  8 coefficients,  rinner =    0.950   0.950   0.950


     PseudoPot. # 3 for N  read from file:
     ./pseudo/N.pbesol-theos.UPF
     MD5 check sum: 1b64827339d390a5a22afef3ff345c9d
     Pseudo is Ultrasoft + core correction, Zval =  5.0
     Generated using "atomic" code by A. Dal Corso  v.5.1
     Using radial grid of 1085 points,  4 beta functions with: 
                l(1) =   0
                l(2) =   0
                l(3) =   1
                l(4) =   1
     Q(r) pseudized with 0 coefficients 


     atomic species   valence    mass     pseudopotential
        As             5.00    74.92160     As( 1.00)
        F              7.00    18.99840     F ( 1.00)
        N              5.00    14.00670     N ( 1.00)

     Starting magnetic structure 
     atomic species   magnetization
        As           0.100
        F            0.100
        N            0.100

      6 Sym. Ops., with inversion, found


                                    s                        frac. trans.

      isym =  1     identity                                     

 cryst.   s( 1) = (     1          0          0      )
                  (     0          1          0      )
                  (     0          0          1      )

 cart.    s( 1) = (  1.0000000 -0.0000000  0.0000000 )
                  ( -0.0000000  1.0000000  0.0000000 )
                  (  0.0000000 -0.0000000  1.0000000 )


      isym =  2     120 deg rotation - cryst. axis [0,0,1]       

 cryst.   s( 2) = (     0          1          0      )
                  (     0          0          1      )
                  (     1          0          0      )

 cart.    s( 2) = ( -0.5000000 -0.8660254  0.0000000 )
                  (  0.8660254 -0.5000000  0.0000000 )
                  (  0.0000000  0.0000000  1.0000000 )


      isym =  3     120 deg rotation - cryst. axis [0,0,-1]      

 cryst.   s( 3) = (     0          0          1      )
                  (     1          0          0      )
                  (     0          1          0      )

 cart.    s( 3) = ( -0.5000000  0.8660254  0.0000000 )
                  ( -0.8660254 -0.5000000  0.0000000 )
                  ( -0.0000000 -0.0000000  1.0000000 )


      isym =  4     inversion                                    

 cryst.   s( 4) = (    -1          0          0      )
                  (     0         -1          0      )
                  (     0          0         -1      )

 cart.    s( 4) = ( -1.0000000  0.0000000 -0.0000000 )
                  (  0.0000000 -1.0000000 -0.0000000 )
                  ( -0.0000000  0.0000000 -1.0000000 )


      isym =  5     inv. 120 deg rotation - cryst. axis [0,0,1]  

 cryst.   s( 5) = (     0         -1          0      )
                  (     0          0         -1      )
                  (    -1          0          0      )

 cart.    s( 5) = (  0.5000000  0.8660254 -0.0000000 )
                  ( -0.8660254  0.5000000 -0.0000000 )
                  ( -0.0000000 -0.0000000 -1.0000000 )


      isym =  6     inv. 120 deg rotation - cryst. axis [0,0,-1] 

 cryst.   s( 6) = (     0          0         -1      )
                  (    -1          0          0      )
                  (     0         -1          0      )

 cart.    s( 6) = (  0.5000000 -0.8660254 -0.0000000 )
                  (  0.8660254  0.5000000 -0.0000000 )
                  (  0.0000000  0.0000000 -1.0000000 )


   Cartesian axes

     site n.     atom                  positions (alat units)
         1           As  tau(   1) = (   0.0000000   0.0000000   0.0000000  )
         2           N   tau(   2) = (  -0.0000000   0.0000000   0.7580509  )
         3           F   tau(   3) = (   0.0407277   0.5883713   0.8110639  )
         4           F   tau(   4) = (   1.0054135   0.3294569   0.7050379  )
         5           F   tau(   5) = (   0.5299084   0.2589144   0.7050379  )
         6           F   tau(   6) = (   0.7065694   0.7059852   0.7050379  )
         7           F   tau(   7) = (  -0.2581164   0.9648996   0.8110639  )
         8           F   tau(   8) = (   0.2173887   1.0354421   0.8110639  )

   Crystallographic axes

     site n.     atom                  positions (cryst. coord.)
         1           As  tau(   1) = (  0.0000000  0.0000000  0.0000000  )
         2           N   tau(   2) = (  0.5000000  0.5000000  0.5000000  )
         3           F   tau(   3) = (  0.7895000  0.7350000  0.0804000  )
         4           F   tau(   4) = (  1.2650000 -0.0804000  0.2105000  )
         5           F   tau(   5) = (  0.9196000  0.2105000  0.2650000  )
         6           F   tau(   6) = (  1.2105000  0.2650000 -0.0804000  )
         7           F   tau(   7) = (  0.7350000  1.0804000 -0.2105000  )
         8           F   tau(   8) = (  1.0804000  0.7895000 -0.2650000  )

     number of k points=   125  Marzari-Vanderbilt smearing, width (Ry)=  0.0100
                       cart. coord. in units 2pi/alat
        k(    1) = (   0.0000000   0.0000000   0.0000000), wk =   0.0013717
        k(    2) = (   0.0000000  -0.0858427   0.0732874), wk =   0.0082305
        k(    3) = (   0.0000000  -0.1716855   0.1465747), wk =   0.0082305
        k(    4) = (   0.0000000  -0.2575282   0.2198621), wk =   0.0082305
        k(    5) = (   0.0000000  -0.3433710   0.2931495), wk =   0.0082305
        k(    6) = (  -0.0743420  -0.0429214   0.1465747), wk =   0.0082305
        k(    7) = (  -0.0743420  -0.1287641   0.2198621), wk =   0.0082305
        k(    8) = (  -0.0743420  -0.2146069   0.2931495), wk =   0.0082305
        k(    9) = (  -0.0743420  -0.3004496   0.3664368), wk =   0.0082305
        k(   10) = (  -0.0743420   0.3862923  -0.2198621), wk =   0.0082305
        k(   11) = (  -0.0743420   0.3004496  -0.1465747), wk =   0.0082305
        k(   12) = (  -0.0743420   0.2146069  -0.0732874), wk =   0.0082305
        k(   13) = (  -0.0743420   0.1287641  -0.0000000), wk =   0.0082305
        k(   14) = (  -0.1486840  -0.0858427   0.2931495), wk =   0.0082305
        k(   15) = (  -0.1486840  -0.1716855   0.3664368), wk =   0.0082305
        k(   16) = (  -0.1486840  -0.2575282   0.4397242), wk =   0.0082305
        k(   17) = (  -0.1486840   0.4292137  -0.1465747), wk =   0.0082305
        k(   18) = (  -0.1486840   0.3433710  -0.0732874), wk =   0.0082305
        k(   19) = (  -0.1486840   0.2575282  -0.0000000), wk =   0.0082305
        k(   20) = (  -0.2230260  -0.1287641   0.4397242), wk =   0.0082305
        k(   21) = (  -0.2230260  -0.2146069   0.5130116), wk =   0.0082305
        k(   22) = (  -0.2230260   0.4721351  -0.0732874), wk =   0.0082305
        k(   23) = (  -0.2230260   0.3862923  -0.0000000), wk =   0.0082305
        k(   24) = (  -0.2973680  -0.1716855   0.5862989), wk =   0.0082305
        k(   25) = (  -0.2973680   0.5150564  -0.0000000), wk =   0.0082305
        k(   26) = (   0.0000000  -0.0000000   0.2198621), wk =   0.0027435
        k(   27) = (   0.0000000  -0.0858427   0.2931495), wk =   0.0082305
        k(   28) = (   0.0000000  -0.1716855   0.3664368), wk =   0.0082305
        k(   29) = (   0.0000000  -0.2575282   0.4397242), wk =   0.0082305
        k(   30) = (  -0.0000000   0.4292137  -0.1465747), wk =   0.0082305
        k(   31) = (  -0.0000000   0.3433710  -0.0732874), wk =   0.0082305
        k(   32) = (  -0.0000000   0.2575282  -0.0000000), wk =   0.0082305
        k(   33) = (   0.0000000   0.1716855   0.0732874), wk =   0.0082305
        k(   34) = (  -0.0743420  -0.0429214   0.3664368), wk =   0.0082305
        k(   35) = (  -0.0743420  -0.1287641   0.4397242), wk =   0.0082305
        k(   36) = (  -0.0743420  -0.2146069   0.5130116), wk =   0.0082305
        k(   37) = (  -0.0743420   0.4721351  -0.0732874), wk =   0.0082305
        k(   38) = (  -0.0743420   0.3862923  -0.0000000), wk =   0.0082305
        k(   39) = (  -0.0743420   0.3004496   0.0732874), wk =   0.0082305
        k(   40) = (  -0.0743420   0.2146069   0.1465747), wk =   0.0082305
        k(   41) = (  -0.1486840  -0.0858427   0.5130116), wk =   0.0082305
        k(   42) = (  -0.1486840  -0.1716855   0.5862989), wk =   0.0082305
        k(   43) = (  -0.1486840   0.5150564  -0.0000000), wk =   0.0082305
        k(   44) = (  -0.1486840   0.4292137   0.0732874), wk =   0.0082305
        k(   45) = (  -0.1486840   0.3433710   0.1465747), wk =   0.0082305
        k(   46) = (  -0.1486840   0.2575282   0.2198621), wk =   0.0082305
        k(   47) = (  -0.2230260  -0.1287641   0.6595863), wk =   0.0082305
        k(   48) = (  -0.2230260   0.5579778   0.0732874), wk =   0.0082305
        k(   49) = (  -0.2230260   0.4721351   0.1465747), wk =   0.0082305
        k(   50) = (  -0.2230260   0.3862923   0.2198621), wk =   0.0082305
        k(   51) = (  -0.2230260   0.3004496   0.2931495), wk =   0.0082305
        k(   52) = (   0.3717100   0.2146069  -0.5130116), wk =   0.0082305
        k(   53) = (   0.3717100   0.1287641  -0.4397242), wk =   0.0082305
        k(   54) = (   0.3717100   0.0429214  -0.3664368), wk =   0.0082305
        k(   55) = (   0.2973680   0.1716855  -0.3664368), wk =   0.0082305
        k(   56) = (   0.2973680   0.0858427  -0.2931495), wk =   0.0082305
        k(   57) = (   0.2230260   0.1287641  -0.2198621), wk =   0.0082305
        k(   58) = (   0.0000000  -0.0000000   0.4397242), wk =   0.0027435
        k(   59) = (   0.0000000  -0.0858427   0.5130116), wk =   0.0082305
        k(   60) = (   0.0000000  -0.1716855   0.5862989), wk =   0.0082305
        k(   61) = (  -0.0000000   0.5150564  -0.0000000), wk =   0.0082305
        k(   62) = (  -0.0000000   0.4292137   0.0732874), wk =   0.0082305
        k(   63) = (   0.0000000   0.3433710   0.1465747), wk =   0.0082305
        k(   64) = (  -0.0743420  -0.0429214   0.5862989), wk =   0.0082305
        k(   65) = (  -0.0743420  -0.1287641   0.6595863), wk =   0.0082305
        k(   66) = (  -0.0743420   0.5579778   0.0732874), wk =   0.0082305
        k(   67) = (  -0.0743420   0.4721351   0.1465747), wk =   0.0082305
        k(   68) = (  -0.0743420   0.3862923   0.2198621), wk =   0.0082305
        k(   69) = (  -0.1486840  -0.0858427   0.7328737), wk =   0.0082305
        k(   70) = (  -0.1486840   0.6008992   0.1465747), wk =   0.0082305
        k(   71) = (  -0.1486840   0.5150564   0.2198621), wk =   0.0082305
        k(   72) = (  -0.1486840   0.4292137   0.2931495), wk =   0.0082305
        k(   73) = (   0.4460520   0.2575282  -0.4397242), wk =   0.0082305
        k(   74) = (   0.4460520   0.1716855  -0.3664368), wk =   0.0082305
        k(   75) = (   0.3717100   0.2146069  -0.2931495), wk =   0.0082305
        k(   76) = (   0.0000000  -0.0000000   0.6595863), wk =   0.0027435
        k(   77) = (   0.0000000  -0.0858427   0.7328737), wk =   0.0082305
        k(   78) = (  -0.0000000   0.6008992   0.1465747), wk =   0.0082305
        k(   79) = (   0.0000000   0.5150564   0.2198621), wk =   0.0082305
        k(   80) = (  -0.0743420  -0.0429214   0.8061610), wk =   0.0082305
        k(   81) = (  -0.0743420   0.6438206   0.2198621), wk =   0.0082305
        k(   82) = (  -0.0743420   0.5579778   0.2931495), wk =   0.0082305
        k(   83) = (   0.5203940   0.3004496  -0.3664368), wk =   0.0082305
        k(   84) = (   0.0000000  -0.0000000   0.8794484), wk =   0.0027435
        k(   85) = (   0.0000000   0.6867419   0.2931495), wk =   0.0082305
        k(   86) = (  -0.0743420   0.1287641  -0.2198621), wk =   0.0082305
        k(   87) = (  -0.0743420   0.2146069  -0.2931495), wk =   0.0082305
        k(   88) = (  -0.0743420   0.3004496  -0.3664368), wk =   0.0082305
        k(   89) = (  -0.0743420  -0.3862923   0.2198621), wk =   0.0082305
        k(   90) = (  -0.0743420  -0.3004496   0.1465747), wk =   0.0082305
        k(   91) = (  -0.0743420  -0.2146069   0.0732874), wk =   0.0082305
        k(   92) = (  -0.1486840   0.1716855  -0.3664368), wk =   0.0082305
        k(   93) = (  -0.1486840   0.2575282  -0.4397242), wk =   0.0082305
        k(   94) = (  -0.1486840  -0.4292137   0.1465747), wk =   0.0082305
        k(   95) = (  -0.1486840  -0.3433710   0.0732874), wk =   0.0082305
        k(   96) = (  -0.2230260   0.2146069  -0.5130116), wk =   0.0082305
        k(   97) = (  -0.2230260  -0.4721351   0.0732874), wk =   0.0082305
        k(   98) = (  -0.0743420   0.1287641  -0.4397242), wk =   0.0082305
        k(   99) = (  -0.0743420   0.2146069  -0.5130116), wk =   0.0082305
        k(  100) = (  -0.0743420  -0.4721351   0.0732874), wk =   0.0082305
        k(  101) = (  -0.0743420  -0.3862923   0.0000000), wk =   0.0082305
        k(  102) = (  -0.0743420  -0.3004496  -0.0732874), wk =   0.0082305
        k(  103) = (  -0.0743420  -0.2146069  -0.1465747), wk =   0.0082305
        k(  104) = (  -0.1486840   0.1716855  -0.5862989), wk =   0.0082305
        k(  105) = (  -0.1486840  -0.5150564   0.0000000), wk =   0.0082305
        k(  106) = (  -0.1486840  -0.4292137  -0.0732874), wk =   0.0082305
        k(  107) = (  -0.1486840  -0.3433710  -0.1465747), wk =   0.0082305
        k(  108) = (  -0.1486840  -0.2575282  -0.2198621), wk =   0.0082305
        k(  109) = (  -0.2230260  -0.5579778  -0.0732874), wk =   0.0082305
        k(  110) = (  -0.2230260  -0.4721351  -0.1465747), wk =   0.0082305
        k(  111) = (  -0.2230260  -0.3862923  -0.2198621), wk =   0.0082305
        k(  112) = (  -0.2230260  -0.3004496  -0.2931495), wk =   0.0082305
        k(  113) = (   0.3717100  -0.1287641   0.4397242), wk =   0.0082305
        k(  114) = (   0.3717100  -0.0429214   0.3664368), wk =   0.0082305
        k(  115) = (   0.2973680  -0.0858427   0.2931495), wk =   0.0082305
        k(  116) = (  -0.0743420   0.1287641  -0.6595863), wk =   0.0082305
        k(  117) = (  -0.0743420  -0.5579778  -0.0732874), wk =   0.0082305
        k(  118) = (  -0.0743420  -0.4721351  -0.1465747), wk =   0.0082305
        k(  119) = (  -0.0743420  -0.3862923  -0.2198621), wk =   0.0082305
        k(  120) = (  -0.1486840  -0.6008992  -0.1465747), wk =   0.0082305
        k(  121) = (  -0.1486840  -0.5150564  -0.2198621), wk =   0.0082305
        k(  122) = (  -0.1486840  -0.4292137  -0.2931495), wk =   0.0082305
        k(  123) = (   0.4460520  -0.1716855   0.3664368), wk =   0.0082305
        k(  124) = (  -0.0743420  -0.6438206  -0.2198621), wk =   0.0082305
        k(  125) = (  -0.0743420  -0.5579778  -0.2931495), wk =   0.0082305

                       cryst. coord.
        k(    1) = (   0.0000000   0.0000000   0.0000000), wk =   0.0013717
        k(    2) = (  -0.0000000  -0.0000000   0.1111111), wk =   0.0082305
        k(    3) = (  -0.0000000  -0.0000000   0.2222222), wk =   0.0082305
        k(    4) = (   0.0000000   0.0000000   0.3333333), wk =   0.0082305
        k(    5) = (  -0.0000000  -0.0000000   0.4444444), wk =   0.0082305
        k(    6) = (  -0.0000000   0.1111111   0.1111111), wk =   0.0082305
        k(    7) = (  -0.0000000   0.1111111   0.2222222), wk =   0.0082305
        k(    8) = (  -0.0000000   0.1111111   0.3333333), wk =   0.0082305
        k(    9) = (   0.0000000   0.1111111   0.4444444), wk =   0.0082305
        k(   10) = (   0.0000000   0.1111111  -0.4444444), wk =   0.0082305
        k(   11) = (  -0.0000000   0.1111111  -0.3333333), wk =   0.0082305
        k(   12) = (  -0.0000000   0.1111111  -0.2222222), wk =   0.0082305
        k(   13) = (   0.0000000   0.1111111  -0.1111111), wk =   0.0082305
        k(   14) = (  -0.0000000   0.2222222   0.2222222), wk =   0.0082305
        k(   15) = (   0.0000000   0.2222222   0.3333333), wk =   0.0082305
        k(   16) = (  -0.0000000   0.2222222   0.4444444), wk =   0.0082305
        k(   17) = (  -0.0000000   0.2222222  -0.4444444), wk =   0.0082305
        k(   18) = (  -0.0000000   0.2222222  -0.3333333), wk =   0.0082305
        k(   19) = (  -0.0000000   0.2222222  -0.2222222), wk =   0.0082305
        k(   20) = (   0.0000000   0.3333333   0.3333333), wk =   0.0082305
        k(   21) = (  -0.0000000   0.3333333   0.4444444), wk =   0.0082305
        k(   22) = (   0.0000000   0.3333333  -0.4444444), wk =   0.0082305
        k(   23) = (  -0.0000000   0.3333333  -0.3333333), wk =   0.0082305
        k(   24) = (  -0.0000000   0.4444444   0.4444444), wk =   0.0082305
        k(   25) = (  -0.0000000   0.4444444  -0.4444444), wk =   0.0082305
        k(   26) = (   0.1111111   0.1111111   0.1111111), wk =   0.0027435
        k(   27) = (   0.1111111   0.1111111   0.2222222), wk =   0.0082305
        k(   28) = (   0.1111111   0.1111111   0.3333333), wk =   0.0082305
        k(   29) = (   0.1111111   0.1111111   0.4444444), wk =   0.0082305
        k(   30) = (   0.1111111   0.1111111  -0.4444444), wk =   0.0082305
        k(   31) = (   0.1111111   0.1111111  -0.3333333), wk =   0.0082305
        k(   32) = (   0.1111111   0.1111111  -0.2222222), wk =   0.0082305
        k(   33) = (   0.1111111   0.1111111  -0.1111111), wk =   0.0082305
        k(   34) = (   0.1111111   0.2222222   0.2222222), wk =   0.0082305
        k(   35) = (   0.1111111   0.2222222   0.3333333), wk =   0.0082305
        k(   36) = (   0.1111111   0.2222222   0.4444444), wk =   0.0082305
        k(   37) = (   0.1111111   0.2222222  -0.4444444), wk =   0.0082305
        k(   38) = (   0.1111111   0.2222222  -0.3333333), wk =   0.0082305
        k(   39) = (   0.1111111   0.2222222  -0.2222222), wk =   0.0082305
        k(   40) = (   0.1111111   0.2222222  -0.1111111), wk =   0.0082305
        k(   41) = (   0.1111111   0.3333333   0.3333333), wk =   0.0082305
        k(   42) = (   0.1111111   0.3333333   0.4444444), wk =   0.0082305
        k(   43) = (   0.1111111   0.3333333  -0.4444444), wk =   0.0082305
        k(   44) = (   0.1111111   0.3333333  -0.3333333), wk =   0.0082305
        k(   45) = (   0.1111111   0.3333333  -0.2222222), wk =   0.0082305
        k(   46) = (   0.1111111   0.3333333  -0.1111111), wk =   0.0082305
        k(   47) = (   0.1111111   0.4444444   0.4444444), wk =   0.0082305
        k(   48) = (   0.1111111   0.4444444  -0.4444444), wk =   0.0082305
        k(   49) = (   0.1111111   0.4444444  -0.3333333), wk =   0.0082305
        k(   50) = (   0.1111111   0.4444444  -0.2222222), wk =   0.0082305
        k(   51) = (   0.1111111   0.4444444  -0.1111111), wk =   0.0082305
        k(   52) = (   0.1111111  -0.4444444  -0.4444444), wk =   0.0082305
        k(   53) = (   0.1111111  -0.4444444  -0.3333333), wk =   0.0082305
        k(   54) = (   0.1111111  -0.4444444  -0.2222222), wk =   0.0082305
        k(   55) = (   0.1111111  -0.3333333  -0.3333333), wk =   0.0082305
        k(   56) = (   0.1111111  -0.3333333  -0.2222222), wk =   0.0082305
        k(   57) = (   0.1111111  -0.2222222  -0.2222222), wk =   0.0082305
        k(   58) = (   0.2222222   0.2222222   0.2222222), wk =   0.0027435
        k(   59) = (   0.2222222   0.2222222   0.3333333), wk =   0.0082305
        k(   60) = (   0.2222222   0.2222222   0.4444444), wk =   0.0082305
        k(   61) = (   0.2222222   0.2222222  -0.4444444), wk =   0.0082305
        k(   62) = (   0.2222222   0.2222222  -0.3333333), wk =   0.0082305
        k(   63) = (   0.2222222   0.2222222  -0.2222222), wk =   0.0082305
        k(   64) = (   0.2222222   0.3333333   0.3333333), wk =   0.0082305
        k(   65) = (   0.2222222   0.3333333   0.4444444), wk =   0.0082305
        k(   66) = (   0.2222222   0.3333333  -0.4444444), wk =   0.0082305
        k(   67) = (   0.2222222   0.3333333  -0.3333333), wk =   0.0082305
        k(   68) = (   0.2222222   0.3333333  -0.2222222), wk =   0.0082305
        k(   69) = (   0.2222222   0.4444444   0.4444444), wk =   0.0082305
        k(   70) = (   0.2222222   0.4444444  -0.4444444), wk =   0.0082305
        k(   71) = (   0.2222222   0.4444444  -0.3333333), wk =   0.0082305
        k(   72) = (   0.2222222   0.4444444  -0.2222222), wk =   0.0082305
        k(   73) = (   0.2222222  -0.4444444  -0.4444444), wk =   0.0082305
        k(   74) = (   0.2222222  -0.4444444  -0.3333333), wk =   0.0082305
        k(   75) = (   0.2222222  -0.3333333  -0.3333333), wk =   0.0082305
        k(   76) = (   0.3333333   0.3333333   0.3333333), wk =   0.0027435
        k(   77) = (   0.3333333   0.3333333   0.4444444), wk =   0.0082305
        k(   78) = (   0.3333333   0.3333333  -0.4444444), wk =   0.0082305
        k(   79) = (   0.3333333   0.3333333  -0.3333333), wk =   0.0082305
        k(   80) = (   0.3333333   0.4444444   0.4444444), wk =   0.0082305
        k(   81) = (   0.3333333   0.4444444  -0.4444444), wk =   0.0082305
        k(   82) = (   0.3333333   0.4444444  -0.3333333), wk =   0.0082305
        k(   83) = (   0.3333333  -0.4444444  -0.4444444), wk =   0.0082305
        k(   84) = (   0.4444444   0.4444444   0.4444444), wk =   0.0027435
        k(   85) = (   0.4444444   0.4444444  -0.4444444), wk =   0.0082305
        k(   86) = (  -0.1111111   0.0000000  -0.2222222), wk =   0.0082305
        k(   87) = (  -0.1111111   0.0000000  -0.3333333), wk =   0.0082305
        k(   88) = (  -0.1111111  -0.0000000  -0.4444444), wk =   0.0082305
        k(   89) = (  -0.1111111  -0.0000000   0.4444444), wk =   0.0082305
        k(   90) = (  -0.1111111   0.0000000   0.3333333), wk =   0.0082305
        k(   91) = (  -0.1111111   0.0000000   0.2222222), wk =   0.0082305
        k(   92) = (  -0.2222222   0.0000000  -0.3333333), wk =   0.0082305
        k(   93) = (  -0.2222222   0.0000000  -0.4444444), wk =   0.0082305
        k(   94) = (  -0.2222222   0.0000000   0.4444444), wk =   0.0082305
        k(   95) = (  -0.2222222  -0.0000000   0.3333333), wk =   0.0082305
        k(   96) = (  -0.3333333   0.0000000  -0.4444444), wk =   0.0082305
        k(   97) = (  -0.3333333  -0.0000000   0.4444444), wk =   0.0082305
        k(   98) = (  -0.2222222  -0.1111111  -0.3333333), wk =   0.0082305
        k(   99) = (  -0.2222222  -0.1111111  -0.4444444), wk =   0.0082305
        k(  100) = (  -0.2222222  -0.1111111   0.4444444), wk =   0.0082305
        k(  101) = (  -0.2222222  -0.1111111   0.3333333), wk =   0.0082305
        k(  102) = (  -0.2222222  -0.1111111   0.2222222), wk =   0.0082305
        k(  103) = (  -0.2222222  -0.1111111   0.1111111), wk =   0.0082305
        k(  104) = (  -0.3333333  -0.1111111  -0.4444444), wk =   0.0082305
        k(  105) = (  -0.3333333  -0.1111111   0.4444444), wk =   0.0082305
        k(  106) = (  -0.3333333  -0.1111111   0.3333333), wk =   0.0082305
        k(  107) = (  -0.3333333  -0.1111111   0.2222222), wk =   0.0082305
        k(  108) = (  -0.3333333  -0.1111111   0.1111111), wk =   0.0082305
        k(  109) = (  -0.4444444  -0.1111111   0.4444444), wk =   0.0082305
        k(  110) = (  -0.4444444  -0.1111111   0.3333333), wk =   0.0082305
        k(  111) = (  -0.4444444  -0.1111111   0.2222222), wk =   0.0082305
        k(  112) = (  -0.4444444  -0.1111111   0.1111111), wk =   0.0082305
        k(  113) = (   0.4444444  -0.1111111   0.3333333), wk =   0.0082305
        k(  114) = (   0.4444444  -0.1111111   0.2222222), wk =   0.0082305
        k(  115) = (   0.3333333  -0.1111111   0.2222222), wk =   0.0082305
        k(  116) = (  -0.3333333  -0.2222222  -0.4444444), wk =   0.0082305
        k(  117) = (  -0.3333333  -0.2222222   0.4444444), wk =   0.0082305
        k(  118) = (  -0.3333333  -0.2222222   0.3333333), wk =   0.0082305
        k(  119) = (  -0.3333333  -0.2222222   0.2222222), wk =   0.0082305
        k(  120) = (  -0.4444444  -0.2222222   0.4444444), wk =   0.0082305
        k(  121) = (  -0.4444444  -0.2222222   0.3333333), wk =   0.0082305
        k(  122) = (  -0.4444444  -0.2222222   0.2222222), wk =   0.0082305
        k(  123) = (   0.4444444  -0.2222222   0.3333333), wk =   0.0082305
        k(  124) = (  -0.4444444  -0.3333333   0.4444444), wk =   0.0082305
        k(  125) = (  -0.4444444  -0.3333333   0.3333333), wk =   0.0082305

     Dense  grid:   148683 G-vectors     FFT dimensions: (  72,  72,  72)

     Smooth grid:    52643 G-vectors     FFT dimensions: (  48,  48,  48)

     Dynamical RAM for                 wfc:       3.11 MB

     Dynamical RAM for     wfc (w. buffer):     780.52 MB

     Dynamical RAM for           str. fact:       6.81 MB

     Dynamical RAM for           local pot:       0.00 MB

     Dynamical RAM for          nlocal pot:       6.42 MB

     Dynamical RAM for                qrad:       1.51 MB

     Dynamical RAM for          rho,v,vnew:      30.70 MB

     Dynamical RAM for               rhoin:      10.23 MB

     Dynamical RAM for            rho*nmix:      72.60 MB

     Dynamical RAM for           G-vectors:       8.91 MB

     Dynamical RAM for          h,s,v(r/c):       0.18 MB

     Dynamical RAM for          <psi|beta>:       0.03 MB

     Dynamical RAM for                 psi:       6.22 MB

     Dynamical RAM for                hpsi:       6.22 MB

     Dynamical RAM for                spsi:       6.22 MB

     Dynamical RAM for      wfcinit/wfcrot:       6.24 MB

     Dynamical RAM for           addusdens:     113.44 MB

     Dynamical RAM for          addusforce:     136.13 MB

     Dynamical RAM for         addusstress:     116.84 MB

     Estimated static dynamical RAM per process >     871.26 MB

     Estimated max dynamical RAM per process >       1.05 GB

     Atomic positions and unit cell read from directory:
     ./out/aiida.save/
 
     Generating pointlists ...
     new r_m :   0.1410 (alat units)  1.3395 (a.u.) for type    1
     new r_m :   0.1410 (alat units)  1.3395 (a.u.) for type    2
     new r_m :   0.2443 (alat units)  2.3200 (a.u.) for type    3

     The initial density is read from file :
     ./out/aiida.save/charge-density

     Starting wfcs from file

     total cpu time spent up to now is        4.7 secs

     per-process dynamical memory:   456.0 Mb

     Self-consistent Calculation
[tb_dev] Currently allocated     6.10E-05 Mbytes, locked:    0 /   2
[tb_pin] Currently allocated     0.00E+00 Mbytes, locked:    0 /   0

     iteration #  1     ecut=    60.00 Ry     beta= 0.20
     Davidson diagonalization with overlap

---- Real-time Memory Report at c_bands before calling an iterative solver
           597 MiB given to the printing process from OS
           453 MiB allocation reported by mallinfo(arena+hblkhd)
         59575 MiB available memory on the node where the printing process lives
     GPU memory used/free/total (MiB): 832 / 15448 / 16280
------------------
     ethr =  1.00E-05,  avg # of iterations =  1.7

     total cpu time spent up to now is       11.8 secs

     total energy              =    -328.86256019 Ry
     estimated scf accuracy    <       0.00279625 Ry

     total magnetization       =     3.21 Bohr mag/cell
     absolute magnetization    =     3.26 Bohr mag/cell
[tb_dev] Currently allocated     1.51E+00 Mbytes, locked:    0 /   8
[tb_pin] Currently allocated     0.00E+00 Mbytes, locked:    0 /   0

     iteration #  2     ecut=    60.00 Ry     beta= 0.20
     Davidson diagonalization with overlap

---- Real-time Memory Report at c_bands before calling an iterative solver
          1768 MiB given to the printing process from OS
          1549 MiB allocation reported by mallinfo(arena+hblkhd)
         57181 MiB available memory on the node where the printing process lives
     GPU memory used/free/total (MiB): 1152 / 15128 / 16280
------------------
     ethr =  5.38E-06,  avg # of iterations =  1.7

     total cpu time spent up to now is       17.4 secs

     total energy              =    -328.86105921 Ry
     estimated scf accuracy    <       0.19031732 Ry

     total magnetization       =     1.86 Bohr mag/cell
     absolute magnetization    =     2.30 Bohr mag/cell
[tb_dev] Currently allocated     1.51E+00 Mbytes, locked:    0 /   8
[tb_pin] Currently allocated     0.00E+00 Mbytes, locked:    0 /   0

     iteration #  3     ecut=    60.00 Ry     beta= 0.20
     Davidson diagonalization with overlap

---- Real-time Memory Report at c_bands before calling an iterative solver
          1774 MiB given to the printing process from OS
          1552 MiB allocation reported by mallinfo(arena+hblkhd)
         57179 MiB available memory on the node where the printing process lives
     GPU memory used/free/total (MiB): 1152 / 15128 / 16280
------------------
     ethr =  5.38E-06,  avg # of iterations =  1.0

     total cpu time spent up to now is       22.3 secs

     total energy              =    -328.86369854 Ry
     estimated scf accuracy    <       0.00459034 Ry

     total magnetization       =     2.87 Bohr mag/cell
     absolute magnetization    =     2.93 Bohr mag/cell
[tb_dev] Currently allocated     1.51E+00 Mbytes, locked:    0 /   8
[tb_pin] Currently allocated     0.00E+00 Mbytes, locked:    0 /   0

     iteration #  4     ecut=    60.00 Ry     beta= 0.20
     Davidson diagonalization with overlap

---- Real-time Memory Report at c_bands before calling an iterative solver
          1779 MiB given to the printing process from OS
          1557 MiB allocation reported by mallinfo(arena+hblkhd)
         57176 MiB available memory on the node where the printing process lives
     GPU memory used/free/total (MiB): 1152 / 15128 / 16280
------------------
     ethr =  5.38E-06,  avg # of iterations =  1.0

     total cpu time spent up to now is       27.2 secs

     total energy              =    -328.86389855 Ry
     estimated scf accuracy    <       0.00187568 Ry

     total magnetization       =     2.90 Bohr mag/cell
     absolute magnetization    =     2.96 Bohr mag/cell
[tb_dev] Currently allocated     1.51E+00 Mbytes, locked:    0 /   8
[tb_pin] Currently allocated     0.00E+00 Mbytes, locked:    0 /   0

     iteration #  5     ecut=    60.00 Ry     beta= 0.20
     Davidson diagonalization with overlap

---- Real-time Memory Report at c_bands before calling an iterative solver
          1780 MiB given to the printing process from OS
          1559 MiB allocation reported by mallinfo(arena+hblkhd)
         57175 MiB available memory on the node where the printing process lives
     GPU memory used/free/total (MiB): 1152 / 15128 / 16280
------------------
     ethr =  3.61E-06,  avg # of iterations =  1.0

     total cpu time spent up to now is       32.1 secs

     total energy              =    -328.86388021 Ry
     estimated scf accuracy    <       0.00020224 Ry

     total magnetization       =     2.89 Bohr mag/cell
     absolute magnetization    =     2.97 Bohr mag/cell
[tb_dev] Currently allocated     1.51E+00 Mbytes, locked:    0 /   8
[tb_pin] Currently allocated     0.00E+00 Mbytes, locked:    0 /   0

     iteration #  6     ecut=    60.00 Ry     beta= 0.20
     Davidson diagonalization with overlap

---- Real-time Memory Report at c_bands before calling an iterative solver
          1784 MiB given to the printing process from OS
          1562 MiB allocation reported by mallinfo(arena+hblkhd)
         57173 MiB available memory on the node where the printing process lives
     GPU memory used/free/total (MiB): 1152 / 15128 / 16280
------------------
     ethr =  3.89E-07,  avg # of iterations =  1.1

     total cpu time spent up to now is       37.1 secs

     total energy              =    -328.86369987 Ry
     estimated scf accuracy    <       0.00028818 Ry

     total magnetization       =     2.94 Bohr mag/cell
     absolute magnetization    =     2.99 Bohr mag/cell
[tb_dev] Currently allocated     1.51E+00 Mbytes, locked:    0 /   8
[tb_pin] Currently allocated     0.00E+00 Mbytes, locked:    0 /   0

     iteration #  7     ecut=    60.00 Ry     beta= 0.20
     Davidson diagonalization with overlap

---- Real-time Memory Report at c_bands before calling an iterative solver
          1787 MiB given to the printing process from OS
          1565 MiB allocation reported by mallinfo(arena+hblkhd)
         57170 MiB available memory on the node where the printing process lives
     GPU memory used/free/total (MiB): 1152 / 15128 / 16280
------------------
     ethr =  3.89E-07,  avg # of iterations =  2.1

     total cpu time spent up to now is       43.8 secs

     total energy              =    -328.85974444 Ry
     estimated scf accuracy    <       0.00069638 Ry

     total magnetization       =     2.62 Bohr mag/cell
     absolute magnetization    =     2.97 Bohr mag/cell
[tb_dev] Currently allocated     1.51E+00 Mbytes, locked:    0 /   8
[tb_pin] Currently allocated     0.00E+00 Mbytes, locked:    0 /   0

     iteration #  8     ecut=    60.00 Ry     beta= 0.20
     Davidson diagonalization with overlap

---- Real-time Memory Report at c_bands before calling an iterative solver
          1790 MiB given to the printing process from OS
          1569 MiB allocation reported by mallinfo(arena+hblkhd)
         57166 MiB available memory on the node where the printing process lives
     GPU memory used/free/total (MiB): 1190 / 15090 / 16280
------------------
     ethr =  3.89E-07,  avg # of iterations =  3.0

     total cpu time spent up to now is       51.5 secs

     total energy              =    -328.85995199 Ry
     estimated scf accuracy    <       0.00213839 Ry

     total magnetization       =     3.20 Bohr mag/cell
     absolute magnetization    =     3.25 Bohr mag/cell
[tb_dev] Currently allocated     1.51E+00 Mbytes, locked:    0 /   8
[tb_pin] Currently allocated     0.00E+00 Mbytes, locked:    0 /   0

     iteration #  9     ecut=    60.00 Ry     beta= 0.20
     Davidson diagonalization with overlap

---- Real-time Memory Report at c_bands before calling an iterative solver
          1795 MiB given to the printing process from OS
          1573 MiB allocation reported by mallinfo(arena+hblkhd)
         57161 MiB available memory on the node where the printing process lives
     GPU memory used/free/total (MiB): 1238 / 15042 / 16280
------------------
     ethr =  3.89E-07,  avg # of iterations =  3.5

     total cpu time spent up to now is       60.0 secs

     total energy              =    -328.86809740 Ry
     estimated scf accuracy    <       0.01818945 Ry

     total magnetization       =     2.13 Bohr mag/cell
     absolute magnetization    =     3.37 Bohr mag/cell
[tb_dev] Currently allocated     1.51E+00 Mbytes, locked:    0 /   8
[tb_pin] Currently allocated     0.00E+00 Mbytes, locked:    0 /   0

     iteration # 10     ecut=    60.00 Ry     beta= 0.20
     Davidson diagonalization with overlap

---- Real-time Memory Report at c_bands before calling an iterative solver
          1798 MiB given to the printing process from OS
          1577 MiB allocation reported by mallinfo(arena+hblkhd)
         57158 MiB available memory on the node where the printing process lives
     GPU memory used/free/total (MiB): 1300 / 14980 / 16280
------------------
     ethr =  3.89E-07,  avg # of iterations =  2.0

     total cpu time spent up to now is       66.9 secs

     total energy              =    -328.86083780 Ry
     estimated scf accuracy    <       0.03317628 Ry

     total magnetization       =     1.94 Bohr mag/cell
     absolute magnetization    =     3.67 Bohr mag/cell
[tb_dev] Currently allocated     1.51E+00 Mbytes, locked:    0 /   8
[tb_pin] Currently allocated     0.00E+00 Mbytes, locked:    0 /   0

     iteration # 11     ecut=    60.00 Ry     beta= 0.20
     Davidson diagonalization with overlap

---- Real-time Memory Report at c_bands before calling an iterative solver
          1800 MiB given to the printing process from OS
          1577 MiB allocation reported by mallinfo(arena+hblkhd)
         57159 MiB available memory on the node where the printing process lives
     GPU memory used/free/total (MiB): 1300 / 14980 / 16280
------------------
     ethr =  3.89E-07,  avg # of iterations =  3.0

     total cpu time spent up to now is       74.7 secs

     total energy              =    -328.86410406 Ry
     estimated scf accuracy    <       0.00084400 Ry

     total magnetization       =     2.64 Bohr mag/cell
     absolute magnetization    =     2.97 Bohr mag/cell
[tb_dev] Currently allocated     1.51E+00 Mbytes, locked:    0 /   8
[tb_pin] Currently allocated     0.00E+00 Mbytes, locked:    0 /   0

     iteration # 12     ecut=    60.00 Ry     beta= 0.20
     Davidson diagonalization with overlap

---- Real-time Memory Report at c_bands before calling an iterative solver
          1800 MiB given to the printing process from OS
          1577 MiB allocation reported by mallinfo(arena+hblkhd)
         57161 MiB available memory on the node where the printing process lives
     GPU memory used/free/total (MiB): 1300 / 14980 / 16280
------------------
     ethr =  3.89E-07,  avg # of iterations =  3.0

     total cpu time spent up to now is       82.3 secs

     total energy              =    -328.83703915 Ry
     estimated scf accuracy    <       0.02890203 Ry

     total magnetization       =     1.95 Bohr mag/cell
     absolute magnetization    =     3.63 Bohr mag/cell
[tb_dev] Currently allocated     1.51E+00 Mbytes, locked:    0 /   8
[tb_pin] Currently allocated     0.00E+00 Mbytes, locked:    0 /   0

     iteration # 13     ecut=    60.00 Ry     beta= 0.20
     Davidson diagonalization with overlap

---- Real-time Memory Report at c_bands before calling an iterative solver
          1800 MiB given to the printing process from OS
          1577 MiB allocation reported by mallinfo(arena+hblkhd)
         57161 MiB available memory on the node where the printing process lives
     GPU memory used/free/total (MiB): 1300 / 14980 / 16280
------------------
     ethr =  3.89E-07,  avg # of iterations =  4.5

     total cpu time spent up to now is       92.7 secs

     total energy              =    -328.85806165 Ry
     estimated scf accuracy    <       0.00935788 Ry

     total magnetization       =     3.43 Bohr mag/cell
     absolute magnetization    =     3.51 Bohr mag/cell
[tb_dev] Currently allocated     1.51E+00 Mbytes, locked:    0 /   8
[tb_pin] Currently allocated     0.00E+00 Mbytes, locked:    0 /   0

     iteration # 14     ecut=    60.00 Ry     beta= 0.20
     Davidson diagonalization with overlap

---- Real-time Memory Report at c_bands before calling an iterative solver
          1800 MiB given to the printing process from OS
          1577 MiB allocation reported by mallinfo(arena+hblkhd)
         57161 MiB available memory on the node where the printing process lives
     GPU memory used/free/total (MiB): 1300 / 14980 / 16280
------------------
     ethr =  3.89E-07,  avg # of iterations =  4.1

     total cpu time spent up to now is      102.3 secs

     total energy              =    -328.84738651 Ry
     estimated scf accuracy    <       0.01202121 Ry

     total magnetization       =     2.17 Bohr mag/cell
     absolute magnetization    =     3.28 Bohr mag/cell
[tb_dev] Currently allocated     1.51E+00 Mbytes, locked:    0 /   8
[tb_pin] Currently allocated     0.00E+00 Mbytes, locked:    0 /   0

     iteration # 15     ecut=    60.00 Ry     beta= 0.20
     Davidson diagonalization with overlap

---- Real-time Memory Report at c_bands before calling an iterative solver
          1800 MiB given to the printing process from OS
          1577 MiB allocation reported by mallinfo(arena+hblkhd)
         57140 MiB available memory on the node where the printing process lives
     GPU memory used/free/total (MiB): 1300 / 14980 / 16280
------------------
     ethr =  3.89E-07,  avg # of iterations =  3.9

     total cpu time spent up to now is      111.4 secs

     total energy              =    -328.86013143 Ry
     estimated scf accuracy    <       0.00431773 Ry

     total magnetization       =     3.31 Bohr mag/cell
     absolute magnetization    =     3.37 Bohr mag/cell
[tb_dev] Currently allocated     1.51E+00 Mbytes, locked:    0 /   8
[tb_pin] Currently allocated     0.00E+00 Mbytes, locked:    0 /   0

     iteration # 16     ecut=    60.00 Ry     beta= 0.20
     Davidson diagonalization with overlap

---- Real-time Memory Report at c_bands before calling an iterative solver
          1800 MiB given to the printing process from OS
          1577 MiB allocation reported by mallinfo(arena+hblkhd)
         57149 MiB available memory on the node where the printing process lives
     GPU memory used/free/total (MiB): 1300 / 14980 / 16280
------------------
     ethr =  3.89E-07,  avg # of iterations =  2.0

     total cpu time spent up to now is      118.2 secs

     total energy              =    -328.85707313 Ry
     estimated scf accuracy    <       0.00491203 Ry

     total magnetization       =     3.35 Bohr mag/cell
     absolute magnetization    =     3.43 Bohr mag/cell
[tb_dev] Currently allocated     1.51E+00 Mbytes, locked:    0 /   8
[tb_pin] Currently allocated     0.00E+00 Mbytes, locked:    0 /   0

     iteration # 17     ecut=    60.00 Ry     beta= 0.20
     Davidson diagonalization with overlap

---- Real-time Memory Report at c_bands before calling an iterative solver
          1800 MiB given to the printing process from OS
          1577 MiB allocation reported by mallinfo(arena+hblkhd)
         57152 MiB available memory on the node where the printing process lives
     GPU memory used/free/total (MiB): 1300 / 14980 / 16280
------------------
     ethr =  3.89E-07,  avg # of iterations =  2.3

     total cpu time spent up to now is      125.2 secs

     total energy              =    -328.85562943 Ry
     estimated scf accuracy    <       0.01154379 Ry

     total magnetization       =     3.50 Bohr mag/cell
     absolute magnetization    =     3.61 Bohr mag/cell
[tb_dev] Currently allocated     1.51E+00 Mbytes, locked:    0 /   8
[tb_pin] Currently allocated     0.00E+00 Mbytes, locked:    0 /   0

     iteration # 18     ecut=    60.00 Ry     beta= 0.20
     Davidson diagonalization with overlap

---- Real-time Memory Report at c_bands before calling an iterative solver
          1800 MiB given to the printing process from OS
          1577 MiB allocation reported by mallinfo(arena+hblkhd)
         57155 MiB available memory on the node where the printing process lives
     GPU memory used/free/total (MiB): 1300 / 14980 / 16280
------------------
     ethr =  3.89E-07,  avg # of iterations =  2.0

     total cpu time spent up to now is      131.3 secs

     total energy              =    -328.85694985 Ry
     estimated scf accuracy    <       0.00827331 Ry

     total magnetization       =     3.43 Bohr mag/cell
     absolute magnetization    =     3.55 Bohr mag/cell
[tb_dev] Currently allocated     1.51E+00 Mbytes, locked:    0 /   8
[tb_pin] Currently allocated     0.00E+00 Mbytes, locked:    0 /   0

     iteration # 19     ecut=    60.00 Ry     beta= 0.20
     Davidson diagonalization with overlap

---- Real-time Memory Report at c_bands before calling an iterative solver
          1800 MiB given to the printing process from OS
          1577 MiB allocation reported by mallinfo(arena+hblkhd)
         57155 MiB available memory on the node where the printing process lives
     GPU memory used/free/total (MiB): 1300 / 14980 / 16280
------------------
     ethr =  3.89E-07,  avg # of iterations =  4.4

     total cpu time spent up to now is      141.5 secs

     total energy              =    -328.86565008 Ry
     estimated scf accuracy    <       0.00332348 Ry

     total magnetization       =     2.49 Bohr mag/cell
     absolute magnetization    =     3.05 Bohr mag/cell
[tb_dev] Currently allocated     1.51E+00 Mbytes, locked:    0 /   8
[tb_pin] Currently allocated     0.00E+00 Mbytes, locked:    0 /   0

     iteration # 20     ecut=    60.00 Ry     beta= 0.20
     Davidson diagonalization with overlap

---- Real-time Memory Report at c_bands before calling an iterative solver
          1800 MiB given to the printing process from OS
          1577 MiB allocation reported by mallinfo(arena+hblkhd)
         57157 MiB available memory on the node where the printing process lives
     GPU memory used/free/total (MiB): 1300 / 14980 / 16280
------------------
     ethr =  3.89E-07,  avg # of iterations =  2.0

     total cpu time spent up to now is      148.2 secs

     total energy              =    -328.84310913 Ry
     estimated scf accuracy    <       0.01967483 Ry

     total magnetization       =     2.11 Bohr mag/cell
     absolute magnetization    =     3.40 Bohr mag/cell
[tb_dev] Currently allocated     1.51E+00 Mbytes, locked:    0 /   8
[tb_pin] Currently allocated     0.00E+00 Mbytes, locked:    0 /   0

     iteration # 21     ecut=    60.00 Ry     beta= 0.20
     Davidson diagonalization with overlap

---- Real-time Memory Report at c_bands before calling an iterative solver
          1800 MiB given to the printing process from OS
          1577 MiB allocation reported by mallinfo(arena+hblkhd)
         57156 MiB available memory on the node where the printing process lives
     GPU memory used/free/total (MiB): 1300 / 14980 / 16280
------------------
     ethr =  3.89E-07,  avg # of iterations =  4.3

     total cpu time spent up to now is      158.0 secs

     total energy              =    -328.86297671 Ry
     estimated scf accuracy    <       0.00212023 Ry

     total magnetization       =     3.23 Bohr mag/cell
     absolute magnetization    =     3.31 Bohr mag/cell
[tb_dev] Currently allocated     1.51E+00 Mbytes, locked:    0 /   8
[tb_pin] Currently allocated     0.00E+00 Mbytes, locked:    0 /   0

     iteration # 22     ecut=    60.00 Ry     beta= 0.20
     Davidson diagonalization with overlap

---- Real-time Memory Report at c_bands before calling an iterative solver
          1800 MiB given to the printing process from OS
          1577 MiB allocation reported by mallinfo(arena+hblkhd)
         57157 MiB available memory on the node where the printing process lives
     GPU memory used/free/total (MiB): 1300 / 14980 / 16280
------------------
     ethr =  3.89E-07,  avg # of iterations =  3.0

     total cpu time spent up to now is      165.7 secs

     total energy              =    -328.86371226 Ry
     estimated scf accuracy    <       0.00049444 Ry

     total magnetization       =     3.05 Bohr mag/cell
     absolute magnetization    =     3.10 Bohr mag/cell
[tb_dev] Currently allocated     1.51E+00 Mbytes, locked:    0 /   8
[tb_pin] Currently allocated     0.00E+00 Mbytes, locked:    0 /   0

     iteration # 23     ecut=    60.00 Ry     beta= 0.20
     Davidson diagonalization with overlap

---- Real-time Memory Report at c_bands before calling an iterative solver
          1800 MiB given to the printing process from OS
          1577 MiB allocation reported by mallinfo(arena+hblkhd)
         57157 MiB available memory on the node where the printing process lives
     GPU memory used/free/total (MiB): 1300 / 14980 / 16280
------------------
     ethr =  3.89E-07,  avg # of iterations =  1.0

     total cpu time spent up to now is      170.6 secs

     total energy              =    -328.86388073 Ry
     estimated scf accuracy    <       0.00063116 Ry

     total magnetization       =     3.08 Bohr mag/cell
     absolute magnetization    =     3.12 Bohr mag/cell
[tb_dev] Currently allocated     1.51E+00 Mbytes, locked:    0 /   8
[tb_pin] Currently allocated     0.00E+00 Mbytes, locked:    0 /   0

     iteration # 24     ecut=    60.00 Ry     beta= 0.20
     Davidson diagonalization with overlap

---- Real-time Memory Report at c_bands before calling an iterative solver
          1800 MiB given to the printing process from OS
          1577 MiB allocation reported by mallinfo(arena+hblkhd)
         57158 MiB available memory on the node where the printing process lives
     GPU memory used/free/total (MiB): 1300 / 14980 / 16280
------------------
     ethr =  3.89E-07,  avg # of iterations =  1.7

     total cpu time spent up to now is      176.0 secs

     total energy              =    -328.86399994 Ry
     estimated scf accuracy    <       0.00032213 Ry

     total magnetization       =     3.01 Bohr mag/cell
     absolute magnetization    =     3.05 Bohr mag/cell
[tb_dev] Currently allocated     1.51E+00 Mbytes, locked:    0 /   8
[tb_pin] Currently allocated     0.00E+00 Mbytes, locked:    0 /   0

     iteration # 25     ecut=    60.00 Ry     beta= 0.20
     Davidson diagonalization with overlap

---- Real-time Memory Report at c_bands before calling an iterative solver
          1800 MiB given to the printing process from OS
          1577 MiB allocation reported by mallinfo(arena+hblkhd)
         57159 MiB available memory on the node where the printing process lives
     GPU memory used/free/total (MiB): 1300 / 14980 / 16280
------------------
     ethr =  3.89E-07,  avg # of iterations =  1.0

     total cpu time spent up to now is      180.9 secs

     total energy              =    -328.86336104 Ry
     estimated scf accuracy    <       0.00023130 Ry

     total magnetization       =     2.96 Bohr mag/cell
     absolute magnetization    =     3.02 Bohr mag/cell
[tb_dev] Currently allocated     1.51E+00 Mbytes, locked:    0 /   8
[tb_pin] Currently allocated     0.00E+00 Mbytes, locked:    0 /   0

     iteration # 26     ecut=    60.00 Ry     beta= 0.20
     Davidson diagonalization with overlap

---- Real-time Memory Report at c_bands before calling an iterative solver
          1800 MiB given to the printing process from OS
          1577 MiB allocation reported by mallinfo(arena+hblkhd)
         57159 MiB available memory on the node where the printing process lives
     GPU memory used/free/total (MiB): 1300 / 14980 / 16280
------------------
     ethr =  3.89E-07,  avg # of iterations =  2.0

     total cpu time spent up to now is      187.4 secs

     total energy              =    -328.86357353 Ry
     estimated scf accuracy    <       0.00116456 Ry

     total magnetization       =     3.12 Bohr mag/cell
     absolute magnetization    =     3.16 Bohr mag/cell
[tb_dev] Currently allocated     1.51E+00 Mbytes, locked:    0 /   8
[tb_pin] Currently allocated     0.00E+00 Mbytes, locked:    0 /   0

     iteration # 27     ecut=    60.00 Ry     beta= 0.20
     Davidson diagonalization with overlap

---- Real-time Memory Report at c_bands before calling an iterative solver
          1800 MiB given to the printing process from OS
          1577 MiB allocation reported by mallinfo(arena+hblkhd)
         57158 MiB available memory on the node where the printing process lives
     GPU memory used/free/total (MiB): 1300 / 14980 / 16280
------------------
     ethr =  3.89E-07,  avg # of iterations =  1.0

     total cpu time spent up to now is      192.4 secs

     total energy              =    -328.86371218 Ry
     estimated scf accuracy    <       0.00109760 Ry

     total magnetization       =     3.12 Bohr mag/cell
     absolute magnetization    =     3.16 Bohr mag/cell
[tb_dev] Currently allocated     1.51E+00 Mbytes, locked:    0 /   8
[tb_pin] Currently allocated     0.00E+00 Mbytes, locked:    0 /   0

     iteration # 28     ecut=    60.00 Ry     beta= 0.20
     Davidson diagonalization with overlap

---- Real-time Memory Report at c_bands before calling an iterative solver
          1800 MiB given to the printing process from OS
          1577 MiB allocation reported by mallinfo(arena+hblkhd)
         57158 MiB available memory on the node where the printing process lives
     GPU memory used/free/total (MiB): 1300 / 14980 / 16280
------------------
     ethr =  3.89E-07,  avg # of iterations =  2.0

     total cpu time spent up to now is      199.0 secs

     total energy              =    -328.86324601 Ry
     estimated scf accuracy    <       0.00039530 Ry

     total magnetization       =     2.87 Bohr mag/cell
     absolute magnetization    =     2.99 Bohr mag/cell
[tb_dev] Currently allocated     1.51E+00 Mbytes, locked:    0 /   8
[tb_pin] Currently allocated     0.00E+00 Mbytes, locked:    0 /   0

     iteration # 29     ecut=    60.00 Ry     beta= 0.20
     Davidson diagonalization with overlap

---- Real-time Memory Report at c_bands before calling an iterative solver
          1800 MiB given to the printing process from OS
          1577 MiB allocation reported by mallinfo(arena+hblkhd)
         57158 MiB available memory on the node where the printing process lives
     GPU memory used/free/total (MiB): 1300 / 14980 / 16280
------------------
     ethr =  3.89E-07,  avg # of iterations =  2.0

     total cpu time spent up to now is      205.6 secs

     total energy              =    -328.86296316 Ry
     estimated scf accuracy    <       0.00049761 Ry

     total magnetization       =     3.07 Bohr mag/cell
     absolute magnetization    =     3.11 Bohr mag/cell
[tb_dev] Currently allocated     1.51E+00 Mbytes, locked:    0 /   8
[tb_pin] Currently allocated     0.00E+00 Mbytes, locked:    0 /   0

     iteration # 30     ecut=    60.00 Ry     beta= 0.20
     Davidson diagonalization with overlap

---- Real-time Memory Report at c_bands before calling an iterative solver
          1800 MiB given to the printing process from OS
          1577 MiB allocation reported by mallinfo(arena+hblkhd)
         57160 MiB available memory on the node where the printing process lives
     GPU memory used/free/total (MiB): 1300 / 14980 / 16280
------------------
     ethr =  3.89E-07,  avg # of iterations =  2.0

     total cpu time spent up to now is      212.1 secs

     total energy              =    -328.86317674 Ry
     estimated scf accuracy    <       0.00234078 Ry

     total magnetization       =     3.20 Bohr mag/cell
     absolute magnetization    =     3.25 Bohr mag/cell
[tb_dev] Currently allocated     1.51E+00 Mbytes, locked:    0 /   8
[tb_pin] Currently allocated     0.00E+00 Mbytes, locked:    0 /   0

     iteration # 31     ecut=    60.00 Ry     beta= 0.20
     Davidson diagonalization with overlap

---- Real-time Memory Report at c_bands before calling an iterative solver
          1800 MiB given to the printing process from OS
          1577 MiB allocation reported by mallinfo(arena+hblkhd)
         57159 MiB available memory on the node where the printing process lives
     GPU memory used/free/total (MiB): 1300 / 14980 / 16280
------------------
     ethr =  3.89E-07,  avg # of iterations =  3.0

     total cpu time spent up to now is      219.9 secs

     total energy              =    -328.86433983 Ry
     estimated scf accuracy    <       0.00062969 Ry

     total magnetization       =     2.83 Bohr mag/cell
     absolute magnetization    =     3.00 Bohr mag/cell
[tb_dev] Currently allocated     1.51E+00 Mbytes, locked:    0 /   8
[tb_pin] Currently allocated     0.00E+00 Mbytes, locked:    0 /   0

     iteration # 32     ecut=    60.00 Ry     beta= 0.20
     Davidson diagonalization with overlap

---- Real-time Memory Report at c_bands before calling an iterative solver
          1800 MiB given to the printing process from OS
          1577 MiB allocation reported by mallinfo(arena+hblkhd)
         57160 MiB available memory on the node where the printing process lives
     GPU memory used/free/total (MiB): 1300 / 14980 / 16280
------------------
     ethr =  3.89E-07,  avg # of iterations =  2.0

     total cpu time spent up to now is      226.4 secs

     total energy              =    -328.86536071 Ry
     estimated scf accuracy    <       0.00371502 Ry

     total magnetization       =     2.57 Bohr mag/cell
     absolute magnetization    =     3.06 Bohr mag/cell
[tb_dev] Currently allocated     1.51E+00 Mbytes, locked:    0 /   8
[tb_pin] Currently allocated     0.00E+00 Mbytes, locked:    0 /   0

     iteration # 33     ecut=    60.00 Ry     beta= 0.20
     Davidson diagonalization with overlap

---- Real-time Memory Report at c_bands before calling an iterative solver
          1800 MiB given to the printing process from OS
          1577 MiB allocation reported by mallinfo(arena+hblkhd)
         57161 MiB available memory on the node where the printing process lives
     GPU memory used/free/total (MiB): 1300 / 14980 / 16280
------------------
     ethr =  3.89E-07,  avg # of iterations =  2.3

     total cpu time spent up to now is      233.5 secs

     total energy              =    -328.86770903 Ry
     estimated scf accuracy    <       0.02507449 Ry

     total magnetization       =     2.08 Bohr mag/cell
     absolute magnetization    =     3.47 Bohr mag/cell
[tb_dev] Currently allocated     1.51E+00 Mbytes, locked:    0 /   8
[tb_pin] Currently allocated     0.00E+00 Mbytes, locked:    0 /   0

     iteration # 34     ecut=    60.00 Ry     beta= 0.20
     Davidson diagonalization with overlap

---- Real-time Memory Report at c_bands before calling an iterative solver
          1800 MiB given to the printing process from OS
          1577 MiB allocation reported by mallinfo(arena+hblkhd)
         57162 MiB available memory on the node where the printing process lives
     GPU memory used/free/total (MiB): 1300 / 14980 / 16280
------------------
     ethr =  3.89E-07,  avg # of iterations =  1.0

     total cpu time spent up to now is      238.4 secs

     total energy              =    -328.86838031 Ry
     estimated scf accuracy    <       0.02935967 Ry

     total magnetization       =     2.03 Bohr mag/cell
     absolute magnetization    =     3.55 Bohr mag/cell
[tb_dev] Currently allocated     1.51E+00 Mbytes, locked:    0 /   8
[tb_pin] Currently allocated     0.00E+00 Mbytes, locked:    0 /   0

     iteration # 35     ecut=    60.00 Ry     beta= 0.20
     Davidson diagonalization with overlap

---- Real-time Memory Report at c_bands before calling an iterative solver
          1800 MiB given to the printing process from OS
          1577 MiB allocation reported by mallinfo(arena+hblkhd)
         57162 MiB available memory on the node where the printing process lives
     GPU memory used/free/total (MiB): 1300 / 14980 / 16280
------------------
     ethr =  3.89E-07,  avg # of iterations =  1.0

     total cpu time spent up to now is      243.4 secs

     total energy              =    -328.86804211 Ry
     estimated scf accuracy    <       0.03459073 Ry

     total magnetization       =     1.98 Bohr mag/cell
     absolute magnetization    =     3.64 Bohr mag/cell
[tb_dev] Currently allocated     1.51E+00 Mbytes, locked:    0 /   8
[tb_pin] Currently allocated     0.00E+00 Mbytes, locked:    0 /   0

     iteration # 36     ecut=    60.00 Ry     beta= 0.20
     Davidson diagonalization with overlap

---- Real-time Memory Report at c_bands before calling an iterative solver
          1800 MiB given to the printing process from OS
          1577 MiB allocation reported by mallinfo(arena+hblkhd)
         57163 MiB available memory on the node where the printing process lives
     GPU memory used/free/total (MiB): 1300 / 14980 / 16280
------------------
     ethr =  3.89E-07,  avg # of iterations =  1.0

     total cpu time spent up to now is      248.3 secs

     total energy              =    -328.86765567 Ry
     estimated scf accuracy    <       0.03197416 Ry

     total magnetization       =     2.00 Bohr mag/cell
     absolute magnetization    =     3.60 Bohr mag/cell
[tb_dev] Currently allocated     1.51E+00 Mbytes, locked:    0 /   8
[tb_pin] Currently allocated     0.00E+00 Mbytes, locked:    0 /   0

     iteration # 37     ecut=    60.00 Ry     beta= 0.20
     Davidson diagonalization with overlap

---- Real-time Memory Report at c_bands before calling an iterative solver
          1800 MiB given to the printing process from OS
          1577 MiB allocation reported by mallinfo(arena+hblkhd)
         57163 MiB available memory on the node where the printing process lives
     GPU memory used/free/total (MiB): 1300 / 14980 / 16280
------------------
     ethr =  3.89E-07,  avg # of iterations =  1.0

     total cpu time spent up to now is      253.4 secs

     total energy              =    -328.86664149 Ry
     estimated scf accuracy    <       0.02872549 Ry

     total magnetization       =     2.03 Bohr mag/cell
     absolute magnetization    =     3.55 Bohr mag/cell
[tb_dev] Currently allocated     1.51E+00 Mbytes, locked:    0 /   8
[tb_pin] Currently allocated     0.00E+00 Mbytes, locked:    0 /   0

     iteration # 38     ecut=    60.00 Ry     beta= 0.20
     Davidson diagonalization with overlap

---- Real-time Memory Report at c_bands before calling an iterative solver
          1800 MiB given to the printing process from OS
          1577 MiB allocation reported by mallinfo(arena+hblkhd)
         57161 MiB available memory on the node where the printing process lives
     GPU memory used/free/total (MiB): 1300 / 14980 / 16280
------------------
     ethr =  3.89E-07,  avg # of iterations =  1.6

     total cpu time spent up to now is      258.7 secs

     total energy              =    -328.86210446 Ry
     estimated scf accuracy    <       0.02099828 Ry

     total magnetization       =     2.14 Bohr mag/cell
     absolute magnetization    =     3.39 Bohr mag/cell
[tb_dev] Currently allocated     1.51E+00 Mbytes, locked:    0 /   8
[tb_pin] Currently allocated     0.00E+00 Mbytes, locked:    0 /   0

     iteration # 39     ecut=    60.00 Ry     beta= 0.20
     Davidson diagonalization with overlap

---- Real-time Memory Report at c_bands before calling an iterative solver
          1800 MiB given to the printing process from OS
          1577 MiB allocation reported by mallinfo(arena+hblkhd)
         57162 MiB available memory on the node where the printing process lives
     GPU memory used/free/total (MiB): 1300 / 14980 / 16280
------------------
     ethr =  3.89E-07,  avg # of iterations =  2.1

     total cpu time spent up to now is      265.6 secs

     total energy              =    -328.86300005 Ry
     estimated scf accuracy    <       0.00188472 Ry

     total magnetization       =     2.75 Bohr mag/cell
     absolute magnetization    =     3.03 Bohr mag/cell
[tb_dev] Currently allocated     1.51E+00 Mbytes, locked:    0 /   8
[tb_pin] Currently allocated     0.00E+00 Mbytes, locked:    0 /   0

     iteration # 40     ecut=    60.00 Ry     beta= 0.20
     Davidson diagonalization with overlap

---- Real-time Memory Report at c_bands before calling an iterative solver
          1800 MiB given to the printing process from OS
          1577 MiB allocation reported by mallinfo(arena+hblkhd)
         57162 MiB available memory on the node where the printing process lives
     GPU memory used/free/total (MiB): 1300 / 14980 / 16280
------------------
     ethr =  3.89E-07,  avg # of iterations =  2.1

     total cpu time spent up to now is      272.3 secs

     total energy              =    -328.86329295 Ry
     estimated scf accuracy    <       0.00110024 Ry

     total magnetization       =     3.06 Bohr mag/cell
     absolute magnetization    =     3.11 Bohr mag/cell
[tb_dev] Currently allocated     1.51E+00 Mbytes, locked:    0 /   8
[tb_pin] Currently allocated     0.00E+00 Mbytes, locked:    0 /   0

     iteration # 41     ecut=    60.00 Ry     beta= 0.20
     Davidson diagonalization with overlap

---- Real-time Memory Report at c_bands before calling an iterative solver
          1800 MiB given to the printing process from OS
          1577 MiB allocation reported by mallinfo(arena+hblkhd)
         57163 MiB available memory on the node where the printing process lives
     GPU memory used/free/total (MiB): 1300 / 14980 / 16280
------------------
     ethr =  3.89E-07,  avg # of iterations =  2.0

     total cpu time spent up to now is      278.6 secs

     total energy              =    -328.86308503 Ry
     estimated scf accuracy    <       0.00254692 Ry

     total magnetization       =     3.18 Bohr mag/cell
     absolute magnetization    =     3.22 Bohr mag/cell
[tb_dev] Currently allocated     1.51E+00 Mbytes, locked:    0 /   8
[tb_pin] Currently allocated     0.00E+00 Mbytes, locked:    0 /   0

     iteration # 42     ecut=    60.00 Ry     beta= 0.20
     Davidson diagonalization with overlap

---- Real-time Memory Report at c_bands before calling an iterative solver
          1800 MiB given to the printing process from OS
          1577 MiB allocation reported by mallinfo(arena+hblkhd)
         57163 MiB available memory on the node where the printing process lives
     GPU memory used/free/total (MiB): 1300 / 14980 / 16280
------------------
     ethr =  3.89E-07,  avg # of iterations =  1.9

     total cpu time spent up to now is      284.5 secs

     total energy              =    -328.86352084 Ry
     estimated scf accuracy    <       0.00428853 Ry

     total magnetization       =     3.25 Bohr mag/cell
     absolute magnetization    =     3.30 Bohr mag/cell
[tb_dev] Currently allocated     1.51E+00 Mbytes, locked:    0 /   8
[tb_pin] Currently allocated     0.00E+00 Mbytes, locked:    0 /   0

     iteration # 43     ecut=    60.00 Ry     beta= 0.20
     Davidson diagonalization with overlap

---- Real-time Memory Report at c_bands before calling an iterative solver
          1800 MiB given to the printing process from OS
          1577 MiB allocation reported by mallinfo(arena+hblkhd)
         57162 MiB available memory on the node where the printing process lives
     GPU memory used/free/total (MiB): 1300 / 14980 / 16280
------------------
     ethr =  3.89E-07,  avg # of iterations =  2.1

     total cpu time spent up to now is      291.2 secs

     total energy              =    -328.86416848 Ry
     estimated scf accuracy    <       0.00031489 Ry

     total magnetization       =     2.93 Bohr mag/cell
     absolute magnetization    =     3.01 Bohr mag/cell
[tb_dev] Currently allocated     1.51E+00 Mbytes, locked:    0 /   8
[tb_pin] Currently allocated     0.00E+00 Mbytes, locked:    0 /   0

     iteration # 44     ecut=    60.00 Ry     beta= 0.20
     Davidson diagonalization with overlap

---- Real-time Memory Report at c_bands before calling an iterative solver
          1800 MiB given to the printing process from OS
          1577 MiB allocation reported by mallinfo(arena+hblkhd)
         57162 MiB available memory on the node where the printing process lives
     GPU memory used/free/total (MiB): 1300 / 14980 / 16280
------------------
     ethr =  3.89E-07,  avg # of iterations =  2.0

     total cpu time spent up to now is      297.6 secs

     total energy              =    -328.86287506 Ry
     estimated scf accuracy    <       0.00079125 Ry

     total magnetization       =     2.74 Bohr mag/cell
     absolute magnetization    =     2.99 Bohr mag/cell
[tb_dev] Currently allocated     1.51E+00 Mbytes, locked:    0 /   8
[tb_pin] Currently allocated     0.00E+00 Mbytes, locked:    0 /   0

     iteration # 45     ecut=    60.00 Ry     beta= 0.20
     Davidson diagonalization with overlap

---- Real-time Memory Report at c_bands before calling an iterative solver
          1800 MiB given to the printing process from OS
          1577 MiB allocation reported by mallinfo(arena+hblkhd)
         57162 MiB available memory on the node where the printing process lives
     GPU memory used/free/total (MiB): 1300 / 14980 / 16280
------------------
     ethr =  3.89E-07,  avg # of iterations =  2.0

     total cpu time spent up to now is      304.3 secs

     total energy              =    -328.86135950 Ry
     estimated scf accuracy    <       0.00138753 Ry

     total magnetization       =     3.10 Bohr mag/cell
     absolute magnetization    =     3.13 Bohr mag/cell
[tb_dev] Currently allocated     1.51E+00 Mbytes, locked:    0 /   8
[tb_pin] Currently allocated     0.00E+00 Mbytes, locked:    0 /   0

     iteration # 46     ecut=    60.00 Ry     beta= 0.20
     Davidson diagonalization with overlap

---- Real-time Memory Report at c_bands before calling an iterative solver
          1800 MiB given to the printing process from OS
          1577 MiB allocation reported by mallinfo(arena+hblkhd)
         57163 MiB available memory on the node where the printing process lives
     GPU memory used/free/total (MiB): 1300 / 14980 / 16280
------------------
     ethr =  3.89E-07,  avg # of iterations =  3.0

     total cpu time spent up to now is      312.0 secs

     total energy              =    -328.86260187 Ry
     estimated scf accuracy    <       0.01163289 Ry

     total magnetization       =     3.42 Bohr mag/cell
     absolute magnetization    =     3.49 Bohr mag/cell
[tb_dev] Currently allocated     1.51E+00 Mbytes, locked:    0 /   8
[tb_pin] Currently allocated     0.00E+00 Mbytes, locked:    0 /   0

     iteration # 47     ecut=    60.00 Ry     beta= 0.20
     Davidson diagonalization with overlap

---- Real-time Memory Report at c_bands before calling an iterative solver
          1800 MiB given to the printing process from OS
          1577 MiB allocation reported by mallinfo(arena+hblkhd)
         57163 MiB available memory on the node where the printing process lives
     GPU memory used/free/total (MiB): 1300 / 14980 / 16280
------------------
     ethr =  3.89E-07,  avg # of iterations =  3.0

     total cpu time spent up to now is      320.0 secs

     total energy              =    -328.86422187 Ry
     estimated scf accuracy    <       0.00071763 Ry

     total magnetization       =     2.91 Bohr mag/cell
     absolute magnetization    =     3.03 Bohr mag/cell
[tb_dev] Currently allocated     1.51E+00 Mbytes, locked:    0 /   8
[tb_pin] Currently allocated     0.00E+00 Mbytes, locked:    0 /   0

     iteration # 48     ecut=    60.00 Ry     beta= 0.20
     Davidson diagonalization with overlap

---- Real-time Memory Report at c_bands before calling an iterative solver
          1800 MiB given to the printing process from OS
          1577 MiB allocation reported by mallinfo(arena+hblkhd)
         57163 MiB available memory on the node where the printing process lives
     GPU memory used/free/total (MiB): 1300 / 14980 / 16280
------------------
     ethr =  3.89E-07,  avg # of iterations =  2.0

     total cpu time spent up to now is      326.2 secs

     total energy              =    -328.86474295 Ry
     estimated scf accuracy    <       0.00200677 Ry

     total magnetization       =     2.69 Bohr mag/cell
     absolute magnetization    =     3.03 Bohr mag/cell
[tb_dev] Currently allocated     1.51E+00 Mbytes, locked:    0 /   8
[tb_pin] Currently allocated     0.00E+00 Mbytes, locked:    0 /   0

     iteration # 49     ecut=    60.00 Ry     beta= 0.20
     Davidson diagonalization with overlap

---- Real-time Memory Report at c_bands before calling an iterative solver
          1800 MiB given to the printing process from OS
          1577 MiB allocation reported by mallinfo(arena+hblkhd)
         57163 MiB available memory on the node where the printing process lives
     GPU memory used/free/total (MiB): 1300 / 14980 / 16280
------------------
     ethr =  3.89E-07,  avg # of iterations =  1.2

     total cpu time spent up to now is      331.4 secs

     total energy              =    -328.86532402 Ry
     estimated scf accuracy    <       0.00420171 Ry

     total magnetization       =     2.55 Bohr mag/cell
     absolute magnetization    =     3.07 Bohr mag/cell
[tb_dev] Currently allocated     1.51E+00 Mbytes, locked:    0 /   8
[tb_pin] Currently allocated     0.00E+00 Mbytes, locked:    0 /   0

     iteration # 50     ecut=    60.00 Ry     beta= 0.20
     Davidson diagonalization with overlap

---- Real-time Memory Report at c_bands before calling an iterative solver
          1800 MiB given to the printing process from OS
          1577 MiB allocation reported by mallinfo(arena+hblkhd)
         57164 MiB available memory on the node where the printing process lives
     GPU memory used/free/total (MiB): 1300 / 14980 / 16280
------------------
     ethr =  3.89E-07,  avg # of iterations =  2.0

     total cpu time spent up to now is      337.4 secs

     total energy              =    -328.86357232 Ry
     estimated scf accuracy    <       0.01078156 Ry

     total magnetization       =     2.34 Bohr mag/cell
     absolute magnetization    =     3.20 Bohr mag/cell
[tb_dev] Currently allocated     1.51E+00 Mbytes, locked:    0 /   8
[tb_pin] Currently allocated     0.00E+00 Mbytes, locked:    0 /   0

     iteration # 51     ecut=    60.00 Ry     beta= 0.20
     Davidson diagonalization with overlap

---- Real-time Memory Report at c_bands before calling an iterative solver
          1800 MiB given to the printing process from OS
          1577 MiB allocation reported by mallinfo(arena+hblkhd)
         57164 MiB available memory on the node where the printing process lives
     GPU memory used/free/total (MiB): 1300 / 14980 / 16280
------------------
     ethr =  3.89E-07,  avg # of iterations =  2.0

     total cpu time spent up to now is      344.1 secs

     total energy              =    -328.86457066 Ry
     estimated scf accuracy    <       0.00221558 Ry

     total magnetization       =     2.73 Bohr mag/cell
     absolute magnetization    =     3.04 Bohr mag/cell
[tb_dev] Currently allocated     1.51E+00 Mbytes, locked:    0 /   8
[tb_pin] Currently allocated     0.00E+00 Mbytes, locked:    0 /   0

     iteration # 52     ecut=    60.00 Ry     beta= 0.20
     Davidson diagonalization with overlap

---- Real-time Memory Report at c_bands before calling an iterative solver
          1800 MiB given to the printing process from OS
          1577 MiB allocation reported by mallinfo(arena+hblkhd)
         57163 MiB available memory on the node where the printing process lives
     GPU memory used/free/total (MiB): 1300 / 14980 / 16280
------------------
     ethr =  3.89E-07,  avg # of iterations =  1.0

     total cpu time spent up to now is      349.0 secs

     total energy              =    -328.86466234 Ry
     estimated scf accuracy    <       0.00276557 Ry

     total magnetization       =     2.68 Bohr mag/cell
     absolute magnetization    =     3.05 Bohr mag/cell
[tb_dev] Currently allocated     1.51E+00 Mbytes, locked:    0 /   8
[tb_pin] Currently allocated     0.00E+00 Mbytes, locked:    0 /   0

     iteration # 53     ecut=    60.00 Ry     beta= 0.20
     Davidson diagonalization with overlap

---- Real-time Memory Report at c_bands before calling an iterative solver
          1800 MiB given to the printing process from OS
          1577 MiB allocation reported by mallinfo(arena+hblkhd)
         57162 MiB available memory on the node where the printing process lives
     GPU memory used/free/total (MiB): 1300 / 14980 / 16280
------------------
     ethr =  3.89E-07,  avg # of iterations =  1.0

     total cpu time spent up to now is      354.0 secs

     total energy              =    -328.86389114 Ry
     estimated scf accuracy    <       0.00345747 Ry

     total magnetization       =     2.64 Bohr mag/cell
     absolute magnetization    =     3.06 Bohr mag/cell
[tb_dev] Currently allocated     1.51E+00 Mbytes, locked:    0 /   8
[tb_pin] Currently allocated     0.00E+00 Mbytes, locked:    0 /   0

     iteration # 54     ecut=    60.00 Ry     beta= 0.20
     Davidson diagonalization with overlap

---- Real-time Memory Report at c_bands before calling an iterative solver
          1800 MiB given to the printing process from OS
          1577 MiB allocation reported by mallinfo(arena+hblkhd)
         57158 MiB available memory on the node where the printing process lives
     GPU memory used/free/total (MiB): 1300 / 14980 / 16280
------------------
     ethr =  3.89E-07,  avg # of iterations =  2.0

     total cpu time spent up to now is      360.1 secs

     total energy              =    -328.86431393 Ry
     estimated scf accuracy    <       0.00115270 Ry

     total magnetization       =     2.86 Bohr mag/cell
     absolute magnetization    =     3.03 Bohr mag/cell
[...]
         57164 MiB available memory on the node where the printing process lives
     GPU memory used/free/total (MiB): 1300 / 14980 / 16280
------------------
     ethr =  3.89E-07,  avg # of iterations =  1.0

     total cpu time spent up to now is      418.4 secs

     total energy              =    -328.86398272 Ry
     estimated scf accuracy    <       0.00464713 Ry

     total magnetization       =     2.53 Bohr mag/cell
     absolute magnetization    =     3.08 Bohr mag/cell
[tb_dev] Currently allocated     1.51E+00 Mbytes, locked:    0 /   8
[tb_pin] Currently allocated     0.00E+00 Mbytes, locked:    0 /   0

     iteration # 65     ecut=    60.00 Ry     beta= 0.20
     Davidson diagonalization with overlap

---- Real-time Memory Report at c_bands before calling an iterative solver
          1800 MiB given to the printing process from OS
          1577 MiB allocation reported by mallinfo(arena+hblkhd)
         57163 MiB available memory on the node where the printing process lives
     GPU memory used/free/total (MiB): 1300 / 14980 / 16280
------------------
     ethr =  3.89E-07,  avg # of iterations =  2.0

     total cpu time spent up to now is      424.4 secs

     total energy              =    -328.86433726 Ry
     estimated scf accuracy    <       0.00105531 Ry

     total magnetization       =     2.77 Bohr mag/cell
     absolute magnetization    =     3.00 Bohr mag/cell
[tb_dev] Currently allocated     1.51E+00 Mbytes, locked:    0 /   8
[tb_pin] Currently allocated     0.00E+00 Mbytes, locked:    0 /   0

     iteration # 66     ecut=    60.00 Ry     beta= 0.20
     Davidson diagonalization with overlap

---- Real-time Memory Report at c_bands before calling an iterative solver
          1800 MiB given to the printing process from OS
          1577 MiB allocation reported by mallinfo(arena+hblkhd)
         57164 MiB available memory on the node where the printing process lives
     GPU memory used/free/total (MiB): 1300 / 14980 / 16280
------------------
     ethr =  3.89E-07,  avg # of iterations =  1.0

     total cpu time spent up to now is      429.3 secs

     total energy              =    -328.86405165 Ry
     estimated scf accuracy    <       0.00104511 Ry

     total magnetization       =     2.79 Bohr mag/cell
     absolute magnetization    =     3.01 Bohr mag/cell
[tb_dev] Currently allocated     1.51E+00 Mbytes, locked:    0 /   8
[tb_pin] Currently allocated     0.00E+00 Mbytes, locked:    0 /   0

     iteration # 67     ecut=    60.00 Ry     beta= 0.20
     Davidson diagonalization with overlap

---- Real-time Memory Report at c_bands before calling an iterative solver
          1800 MiB given to the printing process from OS
          1577 MiB allocation reported by mallinfo(arena+hblkhd)
         57164 MiB available memory on the node where the printing process lives
     GPU memory used/free/total (MiB): 1300 / 14980 / 16280
------------------
     ethr =  3.89E-07,  avg # of iterations =  1.6

     total cpu time spent up to now is      434.6 secs

     total energy              =    -328.86416049 Ry
     estimated scf accuracy    <       0.00057310 Ry

     total magnetization       =     2.91 Bohr mag/cell
     absolute magnetization    =     3.02 Bohr mag/cell
[tb_dev] Currently allocated     1.51E+00 Mbytes, locked:    0 /   8
[tb_pin] Currently allocated     0.00E+00 Mbytes, locked:    0 /   0

     iteration # 68     ecut=    60.00 Ry     beta= 0.20
     Davidson diagonalization with overlap

---- Real-time Memory Report at c_bands before calling an iterative solver
          1800 MiB given to the printing process from OS
          1577 MiB allocation reported by mallinfo(arena+hblkhd)
         57165 MiB available memory on the node where the printing process lives
     GPU memory used/free/total (MiB): 1300 / 14980 / 16280
------------------
     ethr =  3.89E-07,  avg # of iterations =  2.0

     total cpu time spent up to now is      441.5 secs

     total energy              =    -328.86253718 Ry
     estimated scf accuracy    <       0.00278806 Ry

     total magnetization       =     2.62 Bohr mag/cell
     absolute magnetization    =     3.04 Bohr mag/cell
[tb_dev] Currently allocated     1.51E+00 Mbytes, locked:    0 /   8
[tb_pin] Currently allocated     0.00E+00 Mbytes, locked:    0 /   0

     iteration # 69     ecut=    60.00 Ry     beta= 0.20
     Davidson diagonalization with overlap

---- Real-time Memory Report at c_bands before calling an iterative solver
          1800 MiB given to the printing process from OS
          1577 MiB allocation reported by mallinfo(arena+hblkhd)
         57164 MiB available memory on the node where the printing process lives
     GPU memory used/free/total (MiB): 1300 / 14980 / 16280
------------------
     ethr =  3.89E-07,  avg # of iterations =  2.0

     total cpu time spent up to now is      448.2 secs

     total energy              =    -328.86390195 Ry
     estimated scf accuracy    <       0.00065478 Ry

     total magnetization       =     3.03 Bohr mag/cell
     absolute magnetization    =     3.07 Bohr mag/cell
[tb_dev] Currently allocated     1.51E+00 Mbytes, locked:    0 /   8
[tb_pin] Currently allocated     0.00E+00 Mbytes, locked:    0 /   0

     iteration # 70     ecut=    60.00 Ry     beta= 0.20
     Davidson diagonalization with overlap

---- Real-time Memory Report at c_bands before calling an iterative solver
          1800 MiB given to the printing process from OS
          1577 MiB allocation reported by mallinfo(arena+hblkhd)
         57163 MiB available memory on the node where the printing process lives
     GPU memory used/free/total (MiB): 1300 / 14980 / 16280
------------------
     ethr =  3.89E-07,  avg # of iterations =  1.0

     total cpu time spent up to now is      453.1 secs

     total energy              =    -328.86330535 Ry
     estimated scf accuracy    <       0.00074912 Ry

     total magnetization       =     3.05 Bohr mag/cell
     absolute magnetization    =     3.09 Bohr mag/cell
[tb_dev] Currently allocated     1.51E+00 Mbytes, locked:    0 /   8
[tb_pin] Currently allocated     0.00E+00 Mbytes, locked:    0 /   0

     iteration # 71     ecut=    60.00 Ry     beta= 0.20
     Davidson diagonalization with overlap

---- Real-time Memory Report at c_bands before calling an iterative solver
          1800 MiB given to the printing process from OS
          1577 MiB allocation reported by mallinfo(arena+hblkhd)
         57164 MiB available memory on the node where the printing process lives
     GPU memory used/free/total (MiB): 1300 / 14980 / 16280
------------------
     ethr =  3.89E-07,  avg # of iterations =  2.0

     total cpu time spent up to now is      459.4 secs

     total energy              =    -328.86377186 Ry
     estimated scf accuracy    <       0.00215794 Ry

     total magnetization       =     3.17 Bohr mag/cell
     absolute magnetization    =     3.22 Bohr mag/cell
[tb_dev] Currently allocated     1.51E+00 Mbytes, locked:    0 /   8
[tb_pin] Currently allocated     0.00E+00 Mbytes, locked:    0 /   0

     iteration # 72     ecut=    60.00 Ry     beta= 0.20
     Davidson diagonalization with overlap

---- Real-time Memory Report at c_bands before calling an iterative solver
          1800 MiB given to the printing process from OS
          1577 MiB allocation reported by mallinfo(arena+hblkhd)
         57164 MiB available memory on the node where the printing process lives
     GPU memory used/free/total (MiB): 1300 / 14980 / 16280
------------------
     ethr =  3.89E-07,  avg # of iterations =  2.0

     total cpu time spent up to now is      465.7 secs

     total energy              =    -328.86389142 Ry
     estimated scf accuracy    <       0.00080348 Ry

     total magnetization       =     3.06 Bohr mag/cell
     absolute magnetization    =     3.10 Bohr mag/cell
[tb_dev] Currently allocated     1.51E+00 Mbytes, locked:    0 /   8
[tb_pin] Currently allocated     0.00E+00 Mbytes, locked:    0 /   0

     iteration # 73     ecut=    60.00 Ry     beta= 0.20
     Davidson diagonalization with overlap

---- Real-time Memory Report at c_bands before calling an iterative solver
          1800 MiB given to the printing process from OS
          1577 MiB allocation reported by mallinfo(arena+hblkhd)
         57164 MiB available memory on the node where the printing process lives
     GPU memory used/free/total (MiB): 1300 / 14980 / 16280
------------------
     ethr =  3.89E-07,  avg # of iterations =  1.0

     total cpu time spent up to now is      470.7 secs

     total energy              =    -328.86398695 Ry
     estimated scf accuracy    <       0.00077086 Ry

     total magnetization       =     3.06 Bohr mag/cell
     absolute magnetization    =     3.10 Bohr mag/cell
[tb_dev] Currently allocated     1.51E+00 Mbytes, locked:    0 /   8
[tb_pin] Currently allocated     0.00E+00 Mbytes, locked:    0 /   0

     iteration # 74     ecut=    60.00 Ry     beta= 0.20
     Davidson diagonalization with overlap

---- Real-time Memory Report at c_bands before calling an iterative solver
          1800 MiB given to the printing process from OS
          1577 MiB allocation reported by mallinfo(arena+hblkhd)
         57163 MiB available memory on the node where the printing process lives
     GPU memory used/free/total (MiB): 1300 / 14980 / 16280
------------------
     ethr =  3.89E-07,  avg # of iterations =  2.0

     total cpu time spent up to now is      476.8 secs

     total energy              =    -328.86402027 Ry
     estimated scf accuracy    <       0.00053653 Ry

     total magnetization       =     2.90 Bohr mag/cell
     absolute magnetization    =     3.02 Bohr mag/cell
[tb_dev] Currently allocated     1.51E+00 Mbytes, locked:    0 /   8
[tb_pin] Currently allocated     0.00E+00 Mbytes, locked:    0 /   0

     iteration # 75     ecut=    60.00 Ry     beta= 0.20
     Davidson diagonalization with overlap

---- Real-time Memory Report at c_bands before calling an iterative solver
          1800 MiB given to the printing process from OS
          1577 MiB allocation reported by mallinfo(arena+hblkhd)
         57163 MiB available memory on the node where the printing process lives
     GPU memory used/free/total (MiB): 1300 / 14980 / 16280
------------------
     ethr =  3.89E-07,  avg # of iterations =  2.0

     total cpu time spent up to now is      483.5 secs

     total energy              =    -328.86217271 Ry
     estimated scf accuracy    <       0.00506803 Ry

     total magnetization       =     2.52 Bohr mag/cell
     absolute magnetization    =     3.09 Bohr mag/cell
[tb_dev] Currently allocated     1.51E+00 Mbytes, locked:    0 /   8
[tb_pin] Currently allocated     0.00E+00 Mbytes, locked:    0 /   0

     iteration # 76     ecut=    60.00 Ry     beta= 0.20
     Davidson diagonalization with overlap

---- Real-time Memory Report at c_bands before calling an iterative solver
          1800 MiB given to the printing process from OS
          1577 MiB allocation reported by mallinfo(arena+hblkhd)
         57163 MiB available memory on the node where the printing process lives
     GPU memory used/free/total (MiB): 1300 / 14980 / 16280
------------------
     ethr =  3.89E-07,  avg # of iterations =  2.0

     total cpu time spent up to now is      490.1 secs

     total energy              =    -328.86407584 Ry
     estimated scf accuracy    <       0.00053877 Ry

     total magnetization       =     2.99 Bohr mag/cell
     absolute magnetization    =     3.05 Bohr mag/cell
[tb_dev] Currently allocated     1.51E+00 Mbytes, locked:    0 /   8
[tb_pin] Currently allocated     0.00E+00 Mbytes, locked:    0 /   0

     iteration # 77     ecut=    60.00 Ry     beta= 0.20
     Davidson diagonalization with overlap

---- Real-time Memory Report at c_bands before calling an iterative solver
          1800 MiB given to the printing process from OS
          1577 MiB allocation reported by mallinfo(arena+hblkhd)
         57164 MiB available memory on the node where the printing process lives
     GPU memory used/free/total (MiB): 1300 / 14980 / 16280
------------------
     ethr =  3.89E-07,  avg # of iterations =  1.0

     total cpu time spent up to now is      495.0 secs

     total energy              =    -328.86413081 Ry
     estimated scf accuracy    <       0.00049291 Ry

     total magnetization       =     2.96 Bohr mag/cell
     absolute magnetization    =     3.03 Bohr mag/cell
[tb_dev] Currently allocated     1.51E+00 Mbytes, locked:    0 /   8
[tb_pin] Currently allocated     0.00E+00 Mbytes, locked:    0 /   0

     iteration # 78     ecut=    60.00 Ry     beta= 0.20
     Davidson diagonalization with overlap

---- Real-time Memory Report at c_bands before calling an iterative solver
          1800 MiB given to the printing process from OS
          1577 MiB allocation reported by mallinfo(arena+hblkhd)
         57165 MiB available memory on the node where the printing process lives
     GPU memory used/free/total (MiB): 1300 / 14980 / 16280
------------------
     ethr =  3.89E-07,  avg # of iterations =  1.0

     total cpu time spent up to now is      500.0 secs

     total energy              =    -328.86382619 Ry
     estimated scf accuracy    <       0.00055016 Ry

     total magnetization       =     2.92 Bohr mag/cell
     absolute magnetization    =     3.02 Bohr mag/cell
[tb_dev] Currently allocated     1.51E+00 Mbytes, locked:    0 /   8
[tb_pin] Currently allocated     0.00E+00 Mbytes, locked:    0 /   0

     iteration # 79     ecut=    60.00 Ry     beta= 0.20
     Davidson diagonalization with overlap

---- Real-time Memory Report at c_bands before calling an iterative solver
          1800 MiB given to the printing process from OS
          1577 MiB allocation reported by mallinfo(arena+hblkhd)
         57164 MiB available memory on the node where the printing process lives
     GPU memory used/free/total (MiB): 1300 / 14980 / 16280
------------------
     ethr =  3.89E-07,  avg # of iterations =  2.0

     total cpu time spent up to now is      505.8 secs

     total energy              =    -328.86314053 Ry
     estimated scf accuracy    <       0.00068561 Ry

     total magnetization       =     3.03 Bohr mag/cell
     absolute magnetization    =     3.08 Bohr mag/cell
[tb_dev] Currently allocated     1.51E+00 Mbytes, locked:    0 /   8
[tb_pin] Currently allocated     0.00E+00 Mbytes, locked:    0 /   0

     iteration # 80     ecut=    60.00 Ry     beta= 0.20
     Davidson diagonalization with overlap

---- Real-time Memory Report at c_bands before calling an iterative solver
          1800 MiB given to the printing process from OS
          1577 MiB allocation reported by mallinfo(arena+hblkhd)
         57164 MiB available memory on the node where the printing process lives
     GPU memory used/free/total (MiB): 1300 / 14980 / 16280
------------------
     ethr =  3.89E-07,  avg # of iterations =  2.0

     total cpu time spent up to now is      512.4 secs

     total energy              =    -328.86368537 Ry
     estimated scf accuracy    <       0.00247740 Ry

     total magnetization       =     3.19 Bohr mag/cell
     absolute magnetization    =     3.23 Bohr mag/cell

     End of self-consistent calculation

     convergence NOT achieved after  80 iterations: stopping

     Writing config to output data dir ./out/aiida.save/
 
     init_run     :     10.45s CPU      4.06s WALL (       1 calls)
     electrons    :    665.00s CPU    507.70s WALL (       1 calls)

     Called by init_run:
     wfcinit      :      0.40s CPU      0.40s WALL (       1 calls)
                                        0.40s GPU  (       1 calls)
     potinit      :      0.53s CPU      1.55s WALL (       1 calls)
     hinit0       :      7.17s CPU      1.40s WALL (       1 calls)

     Called by electrons:
     c_bands      :    513.97s CPU    427.53s WALL (      80 calls)
     sum_band     :     63.38s CPU     71.73s WALL (      80 calls)
     v_of_rho     :     24.51s CPU      2.26s WALL (      81 calls)
     v_h          :      3.51s CPU      0.31s WALL (      81 calls)
     v_xc         :     20.98s CPU      1.94s WALL (      81 calls)
     newd         :     22.75s CPU      2.38s WALL (      81 calls)
                                        2.38s GPU  (      81 calls)
     mix_rho      :     28.02s CPU      2.75s WALL (      80 calls)

     Called by c_bands:
     init_us_2    :     36.31s CPU     34.33s WALL (   40000 calls)
     init_us_2:gp :     35.54s CPU     33.67s WALL (   40000 calls)
     cegterg      :    428.22s CPU    356.12s WALL (   20000 calls)

     Called by sum_band:
     sum_band:wei :      0.70s CPU      0.71s WALL (      80 calls)
                                        0.70s GPU  (      80 calls)
     sum_band:loo :     59.94s CPU     68.24s WALL (      80 calls)
                                       68.24s GPU  (      80 calls)
     sum_band:buf :     17.11s CPU     19.41s WALL (   20000 calls)
                                       19.29s GPU  (   20000 calls)
     sum_band:ini :     13.92s CPU     16.53s WALL (   20000 calls)
                                       16.42s GPU  (   20000 calls)
     sum_band:cal :      0.63s CPU      2.06s WALL (   20000 calls)
                                        1.53s GPU  (   20000 calls)
     sum_band:bec :      3.76s CPU      4.50s WALL (   20000 calls)
                                        4.37s GPU  (   20000 calls)
     addusdens    :      1.28s CPU      1.31s WALL (      80 calls)
                                        1.31s GPU  (      80 calls)
     addusd:skk   :      0.03s CPU      0.03s WALL (     240 calls)
                                        0.03s GPU  (     240 calls)

     Called by *egterg:
     cdiaghg      :    167.86s CPU    144.62s WALL (   59104 calls)
                                      144.22s GPU  (   59104 calls)
     cegterg:over :      8.85s CPU      7.31s WALL (   39354 calls)
     cegterg:upda :     18.26s CPU     14.93s WALL (   39354 calls)
     cegterg:last :      5.62s CPU      4.90s WALL (   36389 calls)
     h_psi        :    190.92s CPU    155.80s WALL (   59354 calls)
                                      155.41s GPU  (   59354 calls)
     s_psi        :      8.44s CPU     10.69s WALL (   59354 calls)
                                        9.77s GPU  (   59354 calls)
     g_psi        :      0.37s CPU      1.31s WALL (   39354 calls)
                                        1.06s GPU  (   39354 calls)

     Called by h_psi:
     h_psi:calbec :      2.77s CPU      6.27s WALL (   59354 calls)
                                        5.92s GPU  (   59354 calls)
     vloc_psi     :    160.00s CPU    131.73s WALL (   59354 calls)
                                      131.36s GPU  (   59354 calls)
     add_vuspsi   :     13.70s CPU     13.70s WALL (   59354 calls)
                                       13.35s GPU  (   59354 calls)

     General routines
     calbec       :      2.54s CPU      2.17s WALL (   79354 calls)
     fft          :      3.97s CPU      0.57s WALL (    2023 calls)
                                        0.36s GPU  (    1861 calls)
     ffts         :      0.50s CPU      0.07s WALL (     322 calls)
                                        0.01s GPU  (     160 calls)
     fftw         :      6.41s CPU     95.67s WALL (  261122 calls)
                                       94.24s GPU  (  261122 calls)
     interpolate  :      4.99s CPU      0.45s WALL (     162 calls)
     davcio       :      0.98s CPU      1.10s WALL (     518 calls)
 
     Parallel routines
 
     PWSCF        :  11m18.90s CPU   8m33.24s WALL

 
   This run was terminated on:  20:50: 2  23Oct2023            

=------------------------------------------------------------------------------=
   JOB DONE.
=------------------------------------------------------------------------------=
