
     Program PWSCF v.7.2 starts on 22Oct2023 at 17:12: 0 

     This program is part of the open-source Quantum ESPRESSO suite
     for quantum simulation of materials; please cite
         "P. Giannozzi et al., J. Phys.:Condens. Matter 21 395502 (2009);
         "P. Giannozzi et al., J. Phys.:Condens. Matter 29 465901 (2017);
         "P. Giannozzi et al., J. Chem. Phys. 152 154105 (2020);
          URL http://www.quantum-espresso.org", 
     in publications or presentations arising from this work. More details at
     http://www.quantum-espresso.org/quote

     Parallel version (MPI & OpenMP), running on      12 processor cores
     Number of MPI processes:                 1
     Threads/MPI process:                    12

     MPI processes distributed on     1 nodes
     59901 MiB available memory on the printing compute node when the environment starts
 
     Reading input from aiida.in

     Current dimensions of program PWSCF are:
     Max number of different atomic species (ntypx) = 10
     Max number of k-points (npk) =  40000
     Max angular momentum in pseudopotentials (lmaxx) =  4
     Message from routine setup:
     using ibrav=0 with symmetry is DISCOURAGED, use correct ibrav instead
 
     Subspace diagonalization in iterative solution of the eigenvalue problem:
     a serial algorithm will be used

 
     G-vector sticks info
     --------------------
     sticks:   dense  smooth     PW     G-vecs:    dense   smooth      PW
     Sum       10243    5121   1387               629643   222657   31521
 
     Using Slab Decomposition
 


     bravais-lattice index     =            0
     lattice parameter (alat)  =      23.5082  a.u.
     unit-cell volume          =   10031.3061 (a.u.)^3
     number of atoms/cell      =           12
     number of atomic types    =            1
     number of electrons       =       168.00
     number of Kohn-Sham states=          101
     kinetic-energy cutoff     =      30.0000  Ry
     charge density cutoff     =     240.0000  Ry
     scf convergence threshold =      2.4E-09
     mixing beta               =       0.4000
     number of iterations used =            8  plain     mixing
     Exchange-correlation= SLA  PW   PSX  PSC
                           (   1   4  10   8   0   0   0)

     GPU acceleration is ACTIVE.


     GPU used by master process:

        Device Number: 0
        Device name: Tesla P100-PCIE-16GB
        Compute capability : 60
        Ratio of single to double precision performance  : 2
        Memory Clock Rate (KHz): 715000
        Memory Bus Width (bits): 4096
        Peak Memory Bandwidth (GB/s): 732.16

     celldm(1)=  23.508193  celldm(2)=   0.000000  celldm(3)=   0.000000
     celldm(4)=   0.000000  celldm(5)=   0.000000  celldm(6)=   0.000000

     crystal axes: (cart. coord. in units of alat)
               a(1) = (   0.396026  -0.042234   0.917267 )  
               a(2) = (   0.410856   0.889708   0.000000 )  
               a(3) = (  -0.946141   0.000000   0.000000 )  

     reciprocal axes: (cart. coord. in units 2 pi/alat)
               b(1) = (  0.000000 -0.000000  1.090195 )  
               b(2) = (  0.000000  1.123964  0.051751 )  
               b(3) = ( -1.056924  0.488074  0.478795 )  


     PseudoPot. # 1 for W  read from file:
     ./pseudo/w_pbesol_v1.2.uspp.F.UPF
     MD5 check sum: 78d6efd6ad550bd5be97e9711072ceda
     Pseudo is Ultrasoft + core correction, Zval = 14.0
     Generated by new atomic code, or converted to UPF format
     Using radial grid of  923 points,  8 beta functions with: 
                l(1) =   0
                l(2) =   0
                l(3) =   0
                l(4) =   1
                l(5) =   1
                l(6) =   2
                l(7) =   2
                l(8) =   3
     Q(r) pseudized with  6 coefficients,  rinner =    1.350   1.350   1.350
                                                       1.350   1.350   1.350
                                                       1.350

     atomic species   valence    mass     pseudopotential
        W             14.00   183.84000     W ( 1.00)

     Starting magnetic structure 
     atomic species   magnetization
        W            0.357

      2 Sym. Ops., with inversion, found


                                    s                        frac. trans.

      isym =  1     identity                                     

 cryst.   s( 1) = (     1          0          0      )
                  (     0          1          0      )
                  (     0          0          1      )

 cart.    s( 1) = (  1.0000000 -0.0000000  0.0000000 )
                  (  0.0000000  1.0000000 -0.0000000 )
                  (  0.0000000  0.0000000  1.0000000 )


      isym =  2     inversion                                    

 cryst.   s( 2) = (    -1          0          0      )
                  (     0         -1          0      )
                  (     0          0         -1      )

 cart.    s( 2) = ( -1.0000000  0.0000000 -0.0000000 )
                  (  0.0000000 -1.0000000  0.0000000 )
                  (  0.0000000  0.0000000 -1.0000000 )


   Cartesian axes

     site n.     atom                  positions (alat units)
         1           W   tau(   1) = (   1.0133276   0.0614629   0.2109715  )
         2           W   tau(   2) = (   0.7396965   0.7860116   0.7062959  )
         3           W   tau(   3) = (   0.2577102   0.1135504   0.0458634  )
         4           W   tau(   4) = (   1.4953139   0.7339241   0.8714040  )
         5           W   tau(   5) = (   0.9623102   0.2309019   0.0091727  )
         6           W   tau(   6) = (   0.7907139   0.6165726   0.9080947  )
         7           W   tau(   7) = (   0.5715992   0.0674595   0.6604325  )
         8           W   tau(   8) = (   1.1814249   0.7800150   0.2568349  )
         9           W   tau(   9) = (   1.0981780   0.1225593   0.8163680  )
        10           W   tau(  10) = (   0.6548461   0.7249152   0.1008994  )
        11           W   tau(  11) = (   1.2801595   0.1843886   0.6329145  )
        12           W   tau(  12) = (   0.4728646   0.6630859   0.2843529  )

   Crystallographic axes

     site n.     atom                  positions (cryst. coord.)
         1           W   tau(   1) = (  0.2300000  0.0800000 -0.9400000  )
         2           W   tau(   2) = (  0.7700000  0.9200000 -0.0600000  )
         3           W   tau(   3) = (  0.0500000  0.1300000 -0.1950000  )
         4           W   tau(   4) = (  0.9500000  0.8700000 -0.8050000  )
         5           W   tau(   5) = (  0.0100000  0.2600000 -0.9000000  )
         6           W   tau(   6) = (  0.9900000  0.7400000 -0.1000000  )
         7           W   tau(   7) = (  0.7200000  0.1100000 -0.2550000  )
         8           W   tau(   8) = (  0.2800000  0.8900000 -0.7450000  )
         9           W   tau(   9) = (  0.8900000  0.1800000 -0.7100000  )
        10           W   tau(  10) = (  0.1100000  0.8200000 -0.2900000  )
        11           W   tau(  11) = (  0.6900000  0.2400000 -0.9600000  )
        12           W   tau(  12) = (  0.3100000  0.7600000 -0.0400000  )

     number of k points=    42  Marzari-Vanderbilt smearing, width (Ry)=  0.0100
                       cart. coord. in units 2pi/alat
        k(    1) = (   0.0000000   0.0000000   0.0000000), wk =   0.0125000
        k(    2) = (  -0.2113849   0.0976149   0.0957590), wk =   0.0250000
        k(    3) = (  -0.4227698   0.1952298   0.1915181), wk =   0.0250000
        k(    4) = (   0.0000000   0.2809909   0.0129377), wk =   0.0250000
        k(    5) = (  -0.2113849   0.3786058   0.1086968), wk =   0.0250000
        k(    6) = (  -0.4227698   0.4762207   0.2044558), wk =   0.0250000
        k(    7) = (   0.4227698   0.0857611  -0.1785804), wk =   0.0250000
        k(    8) = (   0.2113849   0.1833760  -0.0828213), wk =   0.0250000
        k(    9) = (   0.0000000  -0.5619818  -0.0258755), wk =   0.0125000
        k(   10) = (  -0.2113849  -0.4643669   0.0698836), wk =   0.0250000
        k(   11) = (  -0.4227698  -0.3667520   0.1656426), wk =   0.0250000
        k(   12) = (   0.0000000   0.0000000   0.2725487), wk =   0.0250000
        k(   13) = (  -0.2113849   0.0976149   0.3683077), wk =   0.0250000
        k(   14) = (  -0.4227698   0.1952298   0.4640667), wk =   0.0250000
        k(   15) = (   0.4227698  -0.1952298   0.0810306), wk =   0.0250000
        k(   16) = (   0.2113849  -0.0976149   0.1767896), wk =   0.0250000
        k(   17) = (   0.0000000   0.2809909   0.2854864), wk =   0.0250000
        k(   18) = (  -0.2113849   0.3786058   0.3812454), wk =   0.0250000
        k(   19) = (  -0.4227698   0.4762207   0.4770045), wk =   0.0250000
        k(   20) = (   0.4227698   0.0857611   0.0939683), wk =   0.0250000
        k(   21) = (   0.2113849   0.1833760   0.1897274), wk =   0.0250000
        k(   22) = (   0.0000000  -0.5619818   0.2466732), wk =   0.0250000
        k(   23) = (  -0.2113849  -0.4643669   0.3424322), wk =   0.0250000
        k(   24) = (  -0.4227698  -0.3667520   0.4381913), wk =   0.0250000
        k(   25) = (   0.4227698  -0.7572116   0.0551551), wk =   0.0250000
        k(   26) = (   0.2113849  -0.6595967   0.1509142), wk =   0.0250000
        k(   27) = (   0.0000000  -0.2809909   0.2596109), wk =   0.0250000
        k(   28) = (  -0.2113849  -0.1833760   0.3553700), wk =   0.0250000
        k(   29) = (  -0.4227698  -0.0857611   0.4511290), wk =   0.0250000
        k(   30) = (   0.4227698  -0.4762207   0.0680929), wk =   0.0250000
        k(   31) = (   0.2113849  -0.3786058   0.1638519), wk =   0.0250000
        k(   32) = (   0.0000000   0.0000000  -0.5450973), wk =   0.0125000
        k(   33) = (  -0.2113849   0.0976149  -0.4493383), wk =   0.0250000
        k(   34) = (  -0.4227698   0.1952298  -0.3535793), wk =   0.0250000
        k(   35) = (   0.0000000   0.2809909  -0.5321596), wk =   0.0250000
        k(   36) = (  -0.2113849   0.3786058  -0.4364006), wk =   0.0250000
        k(   37) = (  -0.4227698   0.4762207  -0.3406415), wk =   0.0250000
        k(   38) = (   0.4227698   0.0857611  -0.7236777), wk =   0.0250000
        k(   39) = (   0.2113849   0.1833760  -0.6279186), wk =   0.0250000
        k(   40) = (  -0.0000000  -0.5619818  -0.5709728), wk =   0.0125000
        k(   41) = (  -0.2113849  -0.4643669  -0.4752138), wk =   0.0250000
        k(   42) = (  -0.4227698  -0.3667520  -0.3794547), wk =   0.0250000

                       cryst. coord.
        k(    1) = (   0.0000000   0.0000000   0.0000000), wk =   0.0125000
        k(    2) = (  -0.0000000  -0.0000000   0.2000000), wk =   0.0250000
        k(    3) = (  -0.0000000  -0.0000000   0.4000000), wk =   0.0250000
        k(    4) = (  -0.0000000   0.2500000   0.0000000), wk =   0.0250000
        k(    5) = (   0.0000000   0.2500000   0.2000000), wk =   0.0250000
        k(    6) = (  -0.0000000   0.2500000   0.4000000), wk =   0.0250000
        k(    7) = (   0.0000000   0.2500000  -0.4000000), wk =   0.0250000
        k(    8) = (   0.0000000   0.2500000  -0.2000000), wk =   0.0250000
        k(    9) = (   0.0000000  -0.5000000  -0.0000000), wk =   0.0125000
        k(   10) = (  -0.0000000  -0.5000000   0.2000000), wk =   0.0250000
        k(   11) = (  -0.0000000  -0.5000000   0.4000000), wk =   0.0250000
        k(   12) = (   0.2500000   0.0000000   0.0000000), wk =   0.0250000
        k(   13) = (   0.2500000  -0.0000000   0.2000000), wk =   0.0250000
        k(   14) = (   0.2500000  -0.0000000   0.4000000), wk =   0.0250000
        k(   15) = (   0.2500000   0.0000000  -0.4000000), wk =   0.0250000
        k(   16) = (   0.2500000  -0.0000000  -0.2000000), wk =   0.0250000
        k(   17) = (   0.2500000   0.2500000   0.0000000), wk =   0.0250000
        k(   18) = (   0.2500000   0.2500000   0.2000000), wk =   0.0250000
        k(   19) = (   0.2500000   0.2500000   0.4000000), wk =   0.0250000
        k(   20) = (   0.2500000   0.2500000  -0.4000000), wk =   0.0250000
        k(   21) = (   0.2500000   0.2500000  -0.2000000), wk =   0.0250000
        k(   22) = (   0.2500000  -0.5000000   0.0000000), wk =   0.0250000
        k(   23) = (   0.2500000  -0.5000000   0.2000000), wk =   0.0250000
        k(   24) = (   0.2500000  -0.5000000   0.4000000), wk =   0.0250000
        k(   25) = (   0.2500000  -0.5000000  -0.4000000), wk =   0.0250000
        k(   26) = (   0.2500000  -0.5000000  -0.2000000), wk =   0.0250000
        k(   27) = (   0.2500000  -0.2500000   0.0000000), wk =   0.0250000
        k(   28) = (   0.2500000  -0.2500000   0.2000000), wk =   0.0250000
        k(   29) = (   0.2500000  -0.2500000   0.4000000), wk =   0.0250000
        k(   30) = (   0.2500000  -0.2500000  -0.4000000), wk =   0.0250000
        k(   31) = (   0.2500000  -0.2500000  -0.2000000), wk =   0.0250000
        k(   32) = (  -0.5000000   0.0000000   0.0000000), wk =   0.0125000
        k(   33) = (  -0.5000000  -0.0000000   0.2000000), wk =   0.0250000
        k(   34) = (  -0.5000000  -0.0000000   0.4000000), wk =   0.0250000
        k(   35) = (  -0.5000000   0.2500000   0.0000000), wk =   0.0250000
        k(   36) = (  -0.5000000   0.2500000   0.2000000), wk =   0.0250000
        k(   37) = (  -0.5000000   0.2500000   0.4000000), wk =   0.0250000
        k(   38) = (  -0.5000000   0.2500000  -0.4000000), wk =   0.0250000
        k(   39) = (  -0.5000000   0.2500000  -0.2000000), wk =   0.0250000
        k(   40) = (  -0.5000000  -0.5000000   0.0000000), wk =   0.0125000
        k(   41) = (  -0.5000000  -0.5000000   0.2000000), wk =   0.0250000
        k(   42) = (  -0.5000000  -0.5000000   0.4000000), wk =   0.0250000

     Dense  grid:   629643 G-vectors     FFT dimensions: ( 120, 120, 120)

     Smooth grid:   222657 G-vectors     FFT dimensions: (  81,  81,  80)

     Dynamical RAM for                 wfc:      42.90 MB

     Dynamical RAM for     wfc (w. buffer):    3646.29 MB

     Dynamical RAM for           str. fact:       9.61 MB

     Dynamical RAM for           local pot:       0.00 MB

     Dynamical RAM for          nlocal pot:     132.52 MB

     Dynamical RAM for                qrad:       2.99 MB

     Dynamical RAM for          rho,v,vnew:     136.75 MB

     Dynamical RAM for               rhoin:      45.58 MB

     Dynamical RAM for            rho*nmix:     307.44 MB

     Dynamical RAM for           G-vectors:      37.73 MB

     Dynamical RAM for          h,s,v(r/c):       1.87 MB

     Dynamical RAM for          <psi|beta>:       0.48 MB

     Dynamical RAM for                 psi:      85.80 MB

     Dynamical RAM for                hpsi:      85.80 MB

     Dynamical RAM for                spsi:      85.80 MB

     Dynamical RAM for      wfcinit/wfcrot:     133.07 MB

     Dynamical RAM for           addusdens:    3756.57 MB

     Dynamical RAM for          addusforce:    3968.13 MB

     Dynamical RAM for         addusstress:    3905.49 MB

     Estimated static dynamical RAM per process >       4.01 GB

     Estimated max dynamical RAM per process >       8.19 GB

     Check: negative core charge=   -0.000003
     Generating pointlists ...
     new r_m :   0.1062 (alat units)  2.4964 (a.u.) for type    1

     Initial potential from superposition of free atoms

     starting charge     166.7963, renormalised to     168.0000

     negative rho (up, down):  5.195E-01 2.461E-01
     Starting wfcs are  156 randomized atomic wfcs

     total cpu time spent up to now is       22.6 secs

     per-process dynamical memory:   534.7 Mb

     Self-consistent Calculation
[tb_dev] Currently allocated     2.21E+01 Mbytes, locked:    0 /  11
[tb_pin] Currently allocated     0.00E+00 Mbytes, locked:    0 /   0

     iteration #  1     ecut=    30.00 Ry     beta= 0.40
     Davidson diagonalization with overlap

---- Real-time Memory Report at c_bands before calling an iterative solver
          4863 MiB given to the printing process from OS
           572 MiB allocation reported by mallinfo(arena+hblkhd)
         54421 MiB available memory on the node where the printing process lives
     GPU memory used/free/total (MiB): 2502 / 13778 / 16280
------------------
     ethr =  1.00E-02,  avg # of iterations =  1.6

     negative rho (up, down):  4.720E-01 2.799E-01

     total cpu time spent up to now is       39.9 secs

     total energy              =   -1900.52790450 Ry
     estimated scf accuracy    <       2.26506339 Ry

     total magnetization       =    34.00 Bohr mag/cell
     absolute magnetization    =    34.20 Bohr mag/cell
[tb_dev] Currently allocated     2.21E+01 Mbytes, locked:    0 /   9
[tb_pin] Currently allocated     0.00E+00 Mbytes, locked:    0 /   0

     iteration #  2     ecut=    30.00 Ry     beta= 0.40
     Davidson diagonalization with overlap

---- Real-time Memory Report at c_bands before calling an iterative solver
          5066 MiB given to the printing process from OS
           708 MiB allocation reported by mallinfo(arena+hblkhd)
         54296 MiB available memory on the node where the printing process lives
     GPU memory used/free/total (MiB): 6376 / 9904 / 16280
------------------
     ethr =  1.35E-03,  avg # of iterations =  6.0

     negative rho (up, down):  4.650E-01 2.846E-01

     total cpu time spent up to now is       64.8 secs

     total energy              =   -1900.02327921 Ry
     estimated scf accuracy    <       8.60236279 Ry

     total magnetization       =    34.00 Bohr mag/cell
     absolute magnetization    =    34.18 Bohr mag/cell
[tb_dev] Currently allocated     2.21E+01 Mbytes, locked:    0 /   9
[tb_pin] Currently allocated     0.00E+00 Mbytes, locked:    0 /   0

     iteration #  3     ecut=    30.00 Ry     beta= 0.40
     Davidson diagonalization with overlap

---- Real-time Memory Report at c_bands before calling an iterative solver
          5086 MiB given to the printing process from OS
           729 MiB allocation reported by mallinfo(arena+hblkhd)
         54282 MiB available memory on the node where the printing process lives
     GPU memory used/free/total (MiB): 7138 / 9142 / 16280
------------------
     ethr =  1.35E-03,  avg # of iterations =  6.5

     negative rho (up, down):  4.454E-01 2.977E-01

     total cpu time spent up to now is       92.0 secs

     total energy              =   -1900.66634815 Ry
     estimated scf accuracy    <       7.72087789 Ry

     total magnetization       =    34.00 Bohr mag/cell
     absolute magnetization    =    34.24 Bohr mag/cell
[tb_dev] Currently allocated     2.21E+01 Mbytes, locked:    0 /   9
[tb_pin] Currently allocated     0.00E+00 Mbytes, locked:    0 /   0

     iteration #  4     ecut=    30.00 Ry     beta= 0.40
     Davidson diagonalization with overlap

---- Real-time Memory Report at c_bands before calling an iterative solver
          5093 MiB given to the printing process from OS
           736 MiB allocation reported by mallinfo(arena+hblkhd)
         54278 MiB available memory on the node where the printing process lives
     GPU memory used/free/total (MiB): 7138 / 9142 / 16280
------------------
     ethr =  1.35E-03,  avg # of iterations =  5.8

     negative rho (up, down):  4.371E-01 3.035E-01

     total cpu time spent up to now is      116.6 secs

     total energy              =   -1900.66541822 Ry
     estimated scf accuracy    <       8.80806466 Ry

     total magnetization       =    34.03 Bohr mag/cell
     absolute magnetization    =    34.26 Bohr mag/cell
[tb_dev] Currently allocated     2.21E+01 Mbytes, locked:    0 /   9
[tb_pin] Currently allocated     0.00E+00 Mbytes, locked:    0 /   0

     iteration #  5     ecut=    30.00 Ry     beta= 0.40
     Davidson diagonalization with overlap

---- Real-time Memory Report at c_bands before calling an iterative solver
          5114 MiB given to the printing process from OS
           756 MiB allocation reported by mallinfo(arena+hblkhd)
         54260 MiB available memory on the node where the printing process lives
     GPU memory used/free/total (MiB): 7138 / 9142 / 16280
------------------
     ethr =  1.35E-03,  avg # of iterations =  3.0

     negative rho (up, down):  4.213E-01 3.145E-01

     total cpu time spent up to now is      136.4 secs

     total energy              =   -1900.86012495 Ry
     estimated scf accuracy    <       1.80053435 Ry

     total magnetization       =    34.24 Bohr mag/cell
     absolute magnetization    =    34.48 Bohr mag/cell
[tb_dev] Currently allocated     2.21E+01 Mbytes, locked:    0 /   9
[tb_pin] Currently allocated     0.00E+00 Mbytes, locked:    0 /   0

     iteration #  6     ecut=    30.00 Ry     beta= 0.40
     Davidson diagonalization with overlap

---- Real-time Memory Report at c_bands before calling an iterative solver
          5121 MiB given to the printing process from OS
           763 MiB allocation reported by mallinfo(arena+hblkhd)
         54253 MiB available memory on the node where the printing process lives
     GPU memory used/free/total (MiB): 7138 / 9142 / 16280
------------------
     ethr =  1.07E-03,  avg # of iterations =  9.5

     negative rho (up, down):  4.104E-01 3.224E-01

     total cpu time spent up to now is      167.3 secs

     total energy              =   -1901.27491111 Ry
     estimated scf accuracy    <       9.06180478 Ry

     total magnetization       =    34.07 Bohr mag/cell
     absolute magnetization    =    34.27 Bohr mag/cell
[tb_dev] Currently allocated     2.21E+01 Mbytes, locked:    0 /   9
[tb_pin] Currently allocated     0.00E+00 Mbytes, locked:    0 /   0

     iteration #  7     ecut=    30.00 Ry     beta= 0.40
     Davidson diagonalization with overlap

---- Real-time Memory Report at c_bands before calling an iterative solver
          5141 MiB given to the printing process from OS
           783 MiB allocation reported by mallinfo(arena+hblkhd)
         54234 MiB available memory on the node where the printing process lives
     GPU memory used/free/total (MiB): 7138 / 9142 / 16280
------------------
     ethr =  1.07E-03,  avg # of iterations =  2.2

     negative rho (up, down):  4.024E-01 3.285E-01

     total cpu time spent up to now is      186.4 secs

     total energy              =   -1901.00616784 Ry
     estimated scf accuracy    <       7.64838667 Ry

     total magnetization       =    33.80 Bohr mag/cell
     absolute magnetization    =    34.03 Bohr mag/cell
[tb_dev] Currently allocated     2.21E+01 Mbytes, locked:    0 /   9
[tb_pin] Currently allocated     0.00E+00 Mbytes, locked:    0 /   0

     iteration #  8     ecut=    30.00 Ry     beta= 0.40
     Davidson diagonalization with overlap

---- Real-time Memory Report at c_bands before calling an iterative solver
          5155 MiB given to the printing process from OS
           797 MiB allocation reported by mallinfo(arena+hblkhd)
         54221 MiB available memory on the node where the printing process lives
     GPU memory used/free/total (MiB): 7138 / 9142 / 16280
------------------
     ethr =  1.07E-03,  avg # of iterations =  4.8

     negative rho (up, down):  3.977E-01 3.319E-01

     total cpu time spent up to now is      208.1 secs

     total energy              =   -1901.18670823 Ry
     estimated scf accuracy    <       1.16246077 Ry

     total magnetization       =    33.92 Bohr mag/cell
     absolute magnetization    =    34.12 Bohr mag/cell
[tb_dev] Currently allocated     2.21E+01 Mbytes, locked:    0 /   9
[tb_pin] Currently allocated     0.00E+00 Mbytes, locked:    0 /   0

     iteration #  9     ecut=    30.00 Ry     beta= 0.40
     Davidson diagonalization with overlap

---- Real-time Memory Report at c_bands before calling an iterative solver
          5168 MiB given to the printing process from OS
           811 MiB allocation reported by mallinfo(arena+hblkhd)
         54208 MiB available memory on the node where the printing process lives
     GPU memory used/free/total (MiB): 7138 / 9142 / 16280
------------------
     ethr =  6.92E-04,  avg # of iterations =  3.4

     negative rho (up, down):  3.942E-01 3.347E-01

     total cpu time spent up to now is      228.2 secs

     total energy              =   -1901.23874083 Ry
     estimated scf accuracy    <       0.59253171 Ry

     total magnetization       =    34.33 Bohr mag/cell
     absolute magnetization    =    34.54 Bohr mag/cell
[tb_dev] Currently allocated     2.21E+01 Mbytes, locked:    0 /   9
[tb_pin] Currently allocated     0.00E+00 Mbytes, locked:    0 /   0

     iteration # 10     ecut=    30.00 Ry     beta= 0.40
     Davidson diagonalization with overlap

---- Real-time Memory Report at c_bands before calling an iterative solver
          5182 MiB given to the printing process from OS
           824 MiB allocation reported by mallinfo(arena+hblkhd)
         54195 MiB available memory on the node where the printing process lives
     GPU memory used/free/total (MiB): 7138 / 9142 / 16280
------------------
     ethr =  3.53E-04,  avg # of iterations =  8.8

     negative rho (up, down):  3.965E-01 3.334E-01

     total cpu time spent up to now is      255.1 secs

     total energy              =   -1901.35320220 Ry
     estimated scf accuracy    <       0.98569819 Ry

     total magnetization       =    34.32 Bohr mag/cell
     absolute magnetization    =    34.54 Bohr mag/cell
[tb_dev] Currently allocated     2.21E+01 Mbytes, locked:    0 /   9
[tb_pin] Currently allocated     0.00E+00 Mbytes, locked:    0 /   0

     iteration # 11     ecut=    30.00 Ry     beta= 0.40
     Davidson diagonalization with overlap

---- Real-time Memory Report at c_bands before calling an iterative solver
          5182 MiB given to the printing process from OS
           824 MiB allocation reported by mallinfo(arena+hblkhd)
         54195 MiB available memory on the node where the printing process lives
     GPU memory used/free/total (MiB): 7138 / 9142 / 16280
------------------
     ethr =  3.53E-04,  avg # of iterations =  2.3

     negative rho (up, down):  3.982E-01 3.323E-01

     total cpu time spent up to now is      273.6 secs

     total energy              =   -1901.29051546 Ry
     estimated scf accuracy    <       1.12724433 Ry

     total magnetization       =    34.22 Bohr mag/cell
     absolute magnetization    =    34.45 Bohr mag/cell
[tb_dev] Currently allocated     2.21E+01 Mbytes, locked:    0 /   9
[tb_pin] Currently allocated     0.00E+00 Mbytes, locked:    0 /   0

     iteration # 12     ecut=    30.00 Ry     beta= 0.40
     Davidson diagonalization with overlap

---- Real-time Memory Report at c_bands before calling an iterative solver
          5189 MiB given to the printing process from OS
           824 MiB allocation reported by mallinfo(arena+hblkhd)
         54195 MiB available memory on the node where the printing process lives
     GPU memory used/free/total (MiB): 7138 / 9142 / 16280
------------------
     ethr =  3.53E-04,  avg # of iterations =  1.3

     negative rho (up, down):  3.930E-01 3.361E-01

     total cpu time spent up to now is      291.1 secs

     total energy              =   -1901.31474126 Ry
     estimated scf accuracy    <       0.40913613 Ry

     total magnetization       =    34.18 Bohr mag/cell
     absolute magnetization    =    34.40 Bohr mag/cell
[tb_dev] Currently allocated     2.21E+01 Mbytes, locked:    0 /   9
[tb_pin] Currently allocated     0.00E+00 Mbytes, locked:    0 /   0

     iteration # 13     ecut=    30.00 Ry     beta= 0.40
     Davidson diagonalization with overlap

---- Real-time Memory Report at c_bands before calling an iterative solver
          5189 MiB given to the printing process from OS
           824 MiB allocation reported by mallinfo(arena+hblkhd)
         54196 MiB available memory on the node where the printing process lives
     GPU memory used/free/total (MiB): 7138 / 9142 / 16280
------------------
     ethr =  2.44E-04,  avg # of iterations =  2.8

     negative rho (up, down):  3.904E-01 3.383E-01

     total cpu time spent up to now is      310.4 secs

     total energy              =   -1901.34317336 Ry
     estimated scf accuracy    <       0.17380063 Ry

     total magnetization       =    34.19 Bohr mag/cell
     absolute magnetization    =    34.44 Bohr mag/cell
[tb_dev] Currently allocated     2.21E+01 Mbytes, locked:    0 /   9
[tb_pin] Currently allocated     0.00E+00 Mbytes, locked:    0 /   0

     iteration # 14     ecut=    30.00 Ry     beta= 0.40
     Davidson diagonalization with overlap

---- Real-time Memory Report at c_bands before calling an iterative solver
          5189 MiB given to the printing process from OS
           824 MiB allocation reported by mallinfo(arena+hblkhd)
         54209 MiB available memory on the node where the printing process lives
     GPU memory used/free/total (MiB): 7138 / 9142 / 16280
------------------
     ethr =  1.03E-04,  avg # of iterations =  2.6

     negative rho (up, down):  3.891E-01 3.395E-01

     total cpu time spent up to now is      329.6 secs

     total energy              =   -1901.35814680 Ry
     estimated scf accuracy    <       0.11425246 Ry

     total magnetization       =    34.15 Bohr mag/cell
     absolute magnetization    =    34.44 Bohr mag/cell
[tb_dev] Currently allocated     2.21E+01 Mbytes, locked:    0 /   9
[tb_pin] Currently allocated     0.00E+00 Mbytes, locked:    0 /   0

     iteration # 15     ecut=    30.00 Ry     beta= 0.40
     Davidson diagonalization with overlap

---- Real-time Memory Report at c_bands before calling an iterative solver
          5189 MiB given to the printing process from OS
           824 MiB allocation reported by mallinfo(arena+hblkhd)
         54210 MiB available memory on the node where the printing process lives
     GPU memory used/free/total (MiB): 7138 / 9142 / 16280
------------------
     c_bands:  1 eigenvalues not converged
     c_bands:  1 eigenvalues not converged
     ethr =  6.80E-05,  avg # of iterations =  5.2

     negative rho (up, down):  3.891E-01 3.397E-01

     total cpu time spent up to now is      350.9 secs

     total energy              =   -1901.36769738 Ry
     estimated scf accuracy    <       0.07197760 Ry

     total magnetization       =    34.14 Bohr mag/cell
     absolute magnetization    =    34.58 Bohr mag/cell
[tb_dev] Currently allocated     2.21E+01 Mbytes, locked:    0 /   9
[tb_pin] Currently allocated     0.00E+00 Mbytes, locked:    0 /   0

     iteration # 16     ecut=    30.00 Ry     beta= 0.40
     Davidson diagonalization with overlap

---- Real-time Memory Report at c_bands before calling an iterative solver
          5189 MiB given to the printing process from OS
           824 MiB allocation reported by mallinfo(arena+hblkhd)
         54214 MiB available memory on the node where the printing process lives
     GPU memory used/free/total (MiB): 7138 / 9142 / 16280
------------------
     c_bands:  1 eigenvalues not converged
     c_bands:  1 eigenvalues not converged
     c_bands:  3 eigenvalues not converged
     c_bands:  4 eigenvalues not converged
     ethr =  4.28E-05,  avg # of iterations =  6.0

     negative rho (up, down):  3.888E-01 3.401E-01

     total cpu time spent up to now is      373.6 secs

     total energy              =   -1901.37586735 Ry
     estimated scf accuracy    <       0.02510233 Ry

     total magnetization       =    34.16 Bohr mag/cell
     absolute magnetization    =    34.74 Bohr mag/cell
[tb_dev] Currently allocated     2.21E+01 Mbytes, locked:    0 /   9
[tb_pin] Currently allocated     0.00E+00 Mbytes, locked:    0 /   0

     iteration # 17     ecut=    30.00 Ry     beta= 0.40
     Davidson diagonalization with overlap

---- Real-time Memory Report at c_bands before calling an iterative solver
          5189 MiB given to the printing process from OS
           824 MiB allocation reported by mallinfo(arena+hblkhd)
         54212 MiB available memory on the node where the printing process lives
     GPU memory used/free/total (MiB): 7138 / 9142 / 16280
------------------
     c_bands:  1 eigenvalues not converged
     c_bands:  1 eigenvalues not converged
     c_bands:  1 eigenvalues not converged
     c_bands:  1 eigenvalues not converged
     c_bands:  2 eigenvalues not converged
     c_bands:  2 eigenvalues not converged
     c_bands:  3 eigenvalues not converged
     c_bands:  1 eigenvalues not converged
     c_bands:  2 eigenvalues not converged
     c_bands:  3 eigenvalues not converged
     c_bands:  2 eigenvalues not converged
     c_bands:  4 eigenvalues not converged
     c_bands:  3 eigenvalues not converged
     c_bands:  3 eigenvalues not converged
     c_bands:  2 eigenvalues not converged
     c_bands:  3 eigenvalues not converged
     c_bands:  2 eigenvalues not converged
     c_bands:  3 eigenvalues not converged
     c_bands:  3 eigenvalues not converged
     c_bands:  1 eigenvalues not converged
     c_bands:  2 eigenvalues not converged
     c_bands:  2 eigenvalues not converged
     c_bands:  2 eigenvalues not converged
     c_bands:  2 eigenvalues not converged
     c_bands:  2 eigenvalues not converged
     c_bands:  2 eigenvalues not converged
     c_bands:  3 eigenvalues not converged
     c_bands:  1 eigenvalues not converged
     ethr =  1.49E-05,  avg # of iterations = 12.9

     negative rho (up, down):  3.886E-01 3.403E-01

     total cpu time spent up to now is      408.2 secs

     total energy              =   -1901.38486185 Ry
     estimated scf accuracy    <       0.01455510 Ry

     total magnetization       =    34.15 Bohr mag/cell
     absolute magnetization    =    35.01 Bohr mag/cell
[tb_dev] Currently allocated     2.21E+01 Mbytes, locked:    0 /   9
[tb_pin] Currently allocated     0.00E+00 Mbytes, locked:    0 /   0

     iteration # 18     ecut=    30.00 Ry     beta= 0.40
     Davidson diagonalization with overlap

---- Real-time Memory Report at c_bands before calling an iterative solver
          5189 MiB given to the printing process from OS
           824 MiB allocation reported by mallinfo(arena+hblkhd)
         54213 MiB available memory on the node where the printing process lives
     GPU memory used/free/total (MiB): 7138 / 9142 / 16280
------------------
     c_bands:  1 eigenvalues not converged
     c_bands:  1 eigenvalues not converged
     c_bands:  1 eigenvalues not converged
     ethr =  8.66E-06,  avg # of iterations =  4.9

     negative rho (up, down):  3.879E-01 3.412E-01

     total cpu time spent up to now is      429.4 secs

     total energy              =   -1901.39192116 Ry
     estimated scf accuracy    <       0.01695072 Ry

     total magnetization       =    34.12 Bohr mag/cell
     absolute magnetization    =    35.04 Bohr mag/cell
[tb_dev] Currently allocated     2.21E+01 Mbytes, locked:    0 /   9
[tb_pin] Currently allocated     0.00E+00 Mbytes, locked:    0 /   0

     iteration # 19     ecut=    30.00 Ry     beta= 0.40
     Davidson diagonalization with overlap

---- Real-time Memory Report at c_bands before calling an iterative solver
          5189 MiB given to the printing process from OS
           824 MiB allocation reported by mallinfo(arena+hblkhd)
         54214 MiB available memory on the node where the printing process lives
     GPU memory used/free/total (MiB): 7138 / 9142 / 16280
------------------
     c_bands:  1 eigenvalues not converged
     c_bands:  1 eigenvalues not converged
     c_bands:  1 eigenvalues not converged
     c_bands:  1 eigenvalues not converged
     c_bands:  1 eigenvalues not converged
     c_bands:  1 eigenvalues not converged
     c_bands:  1 eigenvalues not converged
     c_bands:  1 eigenvalues not converged
     c_bands:  1 eigenvalues not converged
     c_bands:  1 eigenvalues not converged
     ethr =  8.66E-06,  avg # of iterations =  6.8

     negative rho (up, down):  3.882E-01 3.408E-01

     total cpu time spent up to now is      452.8 secs

     total energy              =   -1901.39109890 Ry
     estimated scf accuracy    <       0.01853239 Ry

     total magnetization       =    33.99 Bohr mag/cell
     absolute magnetization    =    35.39 Bohr mag/cell
[tb_dev] Currently allocated     2.21E+01 Mbytes, locked:    0 /   9
[tb_pin] Currently allocated     0.00E+00 Mbytes, locked:    0 /   0

     iteration # 20     ecut=    30.00 Ry     beta= 0.40
     Davidson diagonalization with overlap

---- Real-time Memory Report at c_bands before calling an iterative solver
          5189 MiB given to the printing process from OS
           824 MiB allocation reported by mallinfo(arena+hblkhd)
         54214 MiB available memory on the node where the printing process lives
     GPU memory used/free/total (MiB): 7138 / 9142 / 16280
------------------
     c_bands:  1 eigenvalues not converged
     c_bands:  1 eigenvalues not converged
     c_bands:  1 eigenvalues not converged
     c_bands:  1 eigenvalues not converged
     c_bands:  1 eigenvalues not converged
     c_bands:  1 eigenvalues not converged
     c_bands:  1 eigenvalues not converged
     c_bands:  1 eigenvalues not converged
     c_bands:  1 eigenvalues not converged
     c_bands:  2 eigenvalues not converged
     c_bands:  2 eigenvalues not converged
     c_bands:  1 eigenvalues not converged
     ethr =  8.66E-06,  avg # of iterations = 11.6

     negative rho (up, down):  3.883E-01 3.407E-01

     total cpu time spent up to now is      483.2 secs

     total energy              =   -1901.39383170 Ry
     estimated scf accuracy    <       0.06345561 Ry

     total magnetization       =    34.05 Bohr mag/cell
     absolute magnetization    =    35.35 Bohr mag/cell
[tb_dev] Currently allocated     2.21E+01 Mbytes, locked:    0 /   9
[tb_pin] Currently allocated     0.00E+00 Mbytes, locked:    0 /   0

     iteration # 21     ecut=    30.00 Ry     beta= 0.40
     Davidson diagonalization with overlap

---- Real-time Memory Report at c_bands before calling an iterative solver
          5189 MiB given to the printing process from OS
           824 MiB allocation reported by mallinfo(arena+hblkhd)
         54213 MiB available memory on the node where the printing process lives
     GPU memory used/free/total (MiB): 7138 / 9142 / 16280
------------------
     c_bands:  1 eigenvalues not converged
     ethr =  8.66E-06,  avg # of iterations =  1.4

     negative rho (up, down):  3.884E-01 3.408E-01

     total cpu time spent up to now is      500.8 secs

     total energy              =   -1901.39853504 Ry
     estimated scf accuracy    <       0.06852717 Ry

     total magnetization       =    34.06 Bohr mag/cell
     absolute magnetization    =    35.36 Bohr mag/cell
[tb_dev] Currently allocated     2.21E+01 Mbytes, locked:    0 /   9
[tb_pin] Currently allocated     0.00E+00 Mbytes, locked:    0 /   0

     iteration # 22     ecut=    30.00 Ry     beta= 0.40
     Davidson diagonalization with overlap

---- Real-time Memory Report at c_bands before calling an iterative solver
          5189 MiB given to the printing process from OS
           824 MiB allocation reported by mallinfo(arena+hblkhd)
         54215 MiB available memory on the node where the printing process lives
     GPU memory used/free/total (MiB): 7138 / 9142 / 16280
------------------
     c_bands:  1 eigenvalues not converged
     c_bands:  1 eigenvalues not converged
     c_bands:  1 eigenvalues not converged
     c_bands:  1 eigenvalues not converged
     c_bands:  1 eigenvalues not converged
     ethr =  8.66E-06,  avg # of iterations =  5.2

     negative rho (up, down):  3.876E-01 3.418E-01

     total cpu time spent up to now is      522.6 secs

     total energy              =   -1901.40519158 Ry
     estimated scf accuracy    <       0.08677422 Ry

     total magnetization       =    34.04 Bohr mag/cell
     absolute magnetization    =    35.51 Bohr mag/cell
[tb_dev] Currently allocated     2.21E+01 Mbytes, locked:    0 /   9
[tb_pin] Currently allocated     0.00E+00 Mbytes, locked:    0 /   0

     iteration # 23     ecut=    30.00 Ry     beta= 0.40
     Davidson diagonalization with overlap

---- Real-time Memory Report at c_bands before calling an iterative solver
          5189 MiB given to the printing process from OS
           824 MiB allocation reported by mallinfo(arena+hblkhd)
         54216 MiB available memory on the node where the printing process lives
     GPU memory used/free/total (MiB): 7138 / 9142 / 16280
------------------
     c_bands:  1 eigenvalues not converged
     c_bands:  1 eigenvalues not converged
     c_bands:  1 eigenvalues not converged
     c_bands:  1 eigenvalues not converged
     c_bands:  1 eigenvalues not converged
     c_bands:  1 eigenvalues not converged
     c_bands:  1 eigenvalues not converged
     c_bands:  1 eigenvalues not converged
     c_bands:  1 eigenvalues not converged
     c_bands:  1 eigenvalues not converged
     c_bands:  1 eigenvalues not converged
     c_bands:  1 eigenvalues not converged
     c_bands:  1 eigenvalues not converged
     c_bands:  1 eigenvalues not converged
     c_bands:  1 eigenvalues not converged
     c_bands:  1 eigenvalues not converged
     c_bands:  1 eigenvalues not converged
     c_bands:  1 eigenvalues not converged
     c_bands:  1 eigenvalues not converged
     c_bands:  1 eigenvalues not converged
     c_bands:  1 eigenvalues not converged
     c_bands:  1 eigenvalues not converged
     c_bands:  1 eigenvalues not converged
     c_bands:  1 eigenvalues not converged
     c_bands:  1 eigenvalues not converged
     ethr =  8.66E-06,  avg # of iterations = 11.0

     negative rho (up, down):  3.877E-01 3.417E-01

     total cpu time spent up to now is      553.4 secs

     total energy              =   -1901.40780607 Ry
     estimated scf accuracy    <       0.09067778 Ry

     total magnetization       =    33.95 Bohr mag/cell
     absolute magnetization    =    36.47 Bohr mag/cell
[tb_dev] Currently allocated     2.21E+01 Mbytes, locked:    0 /   9
[tb_pin] Currently allocated     0.00E+00 Mbytes, locked:    0 /   0

     iteration # 24     ecut=    30.00 Ry     beta= 0.40
     Davidson diagonalization with overlap

---- Real-time Memory Report at c_bands before calling an iterative solver
          5189 MiB given to the printing process from OS
           824 MiB allocation reported by mallinfo(arena+hblkhd)
         54216 MiB available memory on the node where the printing process lives
     GPU memory used/free/total (MiB): 7138 / 9142 / 16280
------------------
     c_bands:  1 eigenvalues not converged
     ethr =  8.66E-06,  avg # of iterations =  2.2

     negative rho (up, down):  3.877E-01 3.416E-01

     total cpu time spent up to now is      571.6 secs

     total energy              =   -1901.40975920 Ry
     estimated scf accuracy    <       0.12936706 Ry

     total magnetization       =    34.00 Bohr mag/cell
     absolute magnetization    =    36.27 Bohr mag/cell
[tb_dev] Currently allocated     2.21E+01 Mbytes, locked:    0 /   9
[tb_pin] Currently allocated     0.00E+00 Mbytes, locked:    0 /   0

     iteration # 25     ecut=    30.00 Ry     beta= 0.40
     Davidson diagonalization with overlap

---- Real-time Memory Report at c_bands before calling an iterative solver
          5189 MiB given to the printing process from OS
           824 MiB allocation reported by mallinfo(arena+hblkhd)
         54215 MiB available memory on the node where the printing process lives
     GPU memory used/free/total (MiB): 7138 / 9142 / 16280
------------------
     c_bands:  1 eigenvalues not converged
     ethr =  8.66E-06,  avg # of iterations =  1.3

     negative rho (up, down):  3.872E-01 3.422E-01

     total cpu time spent up to now is      589.0 secs

     total energy              =   -1901.42077268 Ry
     estimated scf accuracy    <       0.09935365 Ry

     total magnetization       =    34.00 Bohr mag/cell
     absolute magnetization    =    36.44 Bohr mag/cell
[tb_dev] Currently allocated     2.21E+01 Mbytes, locked:    0 /   9
[tb_pin] Currently allocated     0.00E+00 Mbytes, locked:    0 /   0

     iteration # 26     ecut=    30.00 Ry     beta= 0.40
     Davidson diagonalization with overlap

---- Real-time Memory Report at c_bands before calling an iterative solver
          5189 MiB given to the printing process from OS
           824 MiB allocation reported by mallinfo(arena+hblkhd)
         54216 MiB available memory on the node where the printing process lives
     GPU memory used/free/total (MiB): 7138 / 9142 / 16280
------------------
     c_bands:  1 eigenvalues not converged
     c_bands:  1 eigenvalues not converged
     c_bands:  1 eigenvalues not converged
     c_bands:  1 eigenvalues not converged
     c_bands:  1 eigenvalues not converged
     c_bands:  1 eigenvalues not converged
     c_bands:  1 eigenvalues not converged
     c_bands:  1 eigenvalues not converged
     c_bands:  1 eigenvalues not converged
     c_bands:  1 eigenvalues not converged
     c_bands:  1 eigenvalues not converged
     c_bands:  1 eigenvalues not converged
     c_bands:  1 eigenvalues not converged
     c_bands:  1 eigenvalues not converged
     c_bands:  1 eigenvalues not converged
     c_bands:  1 eigenvalues not converged
     c_bands:  1 eigenvalues not converged
     c_bands:  1 eigenvalues not converged
     c_bands:  1 eigenvalues not converged
     c_bands:  1 eigenvalues not converged
     c_bands:  1 eigenvalues not converged
     c_bands:  1 eigenvalues not converged
     c_bands:  1 eigenvalues not converged
     c_bands:  1 eigenvalues not converged
     c_bands:  1 eigenvalues not converged
     c_bands:  1 eigenvalues not converged
     c_bands:  1 eigenvalues not converged
     c_bands:  1 eigenvalues not converged
     c_bands:  1 eigenvalues not converged
     c_bands:  1 eigenvalues not converged
     c_bands:  1 eigenvalues not converged
     c_bands:  1 eigenvalues not converged
     c_bands:  1 eigenvalues not converged
     c_bands:  1 eigenvalues not converged
     c_bands:  1 eigenvalues not converged
     c_bands:  1 eigenvalues not converged
     c_bands:  1 eigenvalues not converged
     c_bands:  1 eigenvalues not converged
     c_bands:  1 eigenvalues not converged
     c_bands:  1 eigenvalues not converged
     ethr =  8.66E-06,  avg # of iterations = 14.6

     negative rho (up, down):  3.873E-01 3.421E-01

     total cpu time spent up to now is      624.7 secs

     total energy              =   -1901.42667448 Ry
     estimated scf accuracy    <       0.14978923 Ry

     total magnetization       =    34.03 Bohr mag/cell
     absolute magnetization    =    37.66 Bohr mag/cell
[tb_dev] Currently allocated     2.21E+01 Mbytes, locked:    0 /   9
[tb_pin] Currently allocated     0.00E+00 Mbytes, locked:    0 /   0

     iteration # 27     ecut=    30.00 Ry     beta= 0.40
     Davidson diagonalization with overlap

---- Real-time Memory Report at c_bands before calling an iterative solver
          5189 MiB given to the printing process from OS
           824 MiB allocation reported by mallinfo(arena+hblkhd)
         54217 MiB available memory on the node where the printing process lives
     GPU memory used/free/total (MiB): 7138 / 9142 / 16280
------------------
     c_bands:  1 eigenvalues not converged
     c_bands:  1 eigenvalues not converged
     c_bands:  1 eigenvalues not converged
     c_bands:  1 eigenvalues not converged
     ethr =  8.66E-06,  avg # of iterations =  3.4

     negative rho (up, down):  3.871E-01 3.424E-01

     total cpu time spent up to now is      644.0 secs

     total energy              =   -1901.43636125 Ry
     estimated scf accuracy    <       0.13224532 Ry

     total magnetization       =    34.02 Bohr mag/cell
     absolute magnetization    =    37.72 Bohr mag/cell
[tb_dev] Currently allocated     2.21E+01 Mbytes, locked:    0 /   9
[tb_pin] Currently allocated     0.00E+00 Mbytes, locked:    0 /   0

     iteration # 28     ecut=    30.00 Ry     beta= 0.40
     Davidson diagonalization with overlap

---- Real-time Memory Report at c_bands before calling an iterative solver
          5189 MiB given to the printing process from OS
           824 MiB allocation reported by mallinfo(arena+hblkhd)
         54217 MiB available memory on the node where the printing process lives
     GPU memory used/free/total (MiB): 7138 / 9142 / 16280
------------------
     c_bands:  1 eigenvalues not converged
     c_bands:  1 eigenvalues not converged
     c_bands:  1 eigenvalues not converged
     ethr =  8.66E-06,  avg # of iterations =  4.5

     negative rho (up, down):  3.868E-01 3.428E-01

     total cpu time spent up to now is      664.7 secs

     total energy              =   -1901.44288775 Ry
     estimated scf accuracy    <       0.16270145 Ry

     total magnetization       =    34.12 Bohr mag/cell
     absolute magnetization    =    37.98 Bohr mag/cell
[tb_dev] Currently allocated     2.21E+01 Mbytes, locked:    0 /   9
[tb_pin] Currently allocated     0.00E+00 Mbytes, locked:    0 /   0

     iteration # 29     ecut=    30.00 Ry     beta= 0.40
     Davidson diagonalization with overlap

---- Real-time Memory Report at c_bands before calling an iterative solver
          5189 MiB given to the printing process from OS
           824 MiB allocation reported by mallinfo(arena+hblkhd)
         54216 MiB available memory on the node where the printing process lives
     GPU memory used/free/total (MiB): 7138 / 9142 / 16280
------------------
     c_bands:  1 eigenvalues not converged
     c_bands:  1 eigenvalues not converged
     c_bands:  1 eigenvalues not converged
     ethr =  8.66E-06,  avg # of iterations =  6.8

     negative rho (up, down):  3.866E-01 3.432E-01

     total cpu time spent up to now is      689.4 secs

     total energy              =   -1901.45727879 Ry
     estimated scf accuracy    <       0.16750794 Ry

     total magnetization       =    34.09 Bohr mag/cell
     absolute magnetization    =    38.75 Bohr mag/cell
[tb_dev] Currently allocated     2.21E+01 Mbytes, locked:    0 /   9
[tb_pin] Currently allocated     0.00E+00 Mbytes, locked:    0 /   0

     iteration # 30     ecut=    30.00 Ry     beta= 0.40
     Davidson diagonalization with overlap

---- Real-time Memory Report at c_bands before calling an iterative solver
          5189 MiB given to the printing process from OS
           824 MiB allocation reported by mallinfo(arena+hblkhd)
         54217 MiB available memory on the node where the printing process lives
     GPU memory used/free/total (MiB): 7138 / 9142 / 16280
------------------
     c_bands:  1 eigenvalues not converged
     c_bands:  1 eigenvalues not converged
     c_bands:  1 eigenvalues not converged
     c_bands:  1 eigenvalues not converged
     c_bands:  1 eigenvalues not converged
     ethr =  8.66E-06,  avg # of iterations =  8.7
     Minimization algorithm failed to find Fermi energy: reverting to bisection
     Possible cause: smearing is larger than the electronic band-gap.

     negative rho (up, down):  3.868E-01 3.429E-01

     total cpu time spent up to now is      721.5 secs

     total energy              =   -1901.47050721 Ry
     estimated scf accuracy    <       0.07929359 Ry

     total magnetization       =    34.17 Bohr mag/cell
     absolute magnetization    =    40.90 Bohr mag/cell
[tb_dev] Currently allocated     2.21E+01 Mbytes, locked:    0 /   9
[tb_pin] Currently allocated     0.00E+00 Mbytes, locked:    0 /   0

     iteration # 31     ecut=    30.00 Ry     beta= 0.40
     Davidson diagonalization with overlap

---- Real-time Memory Report at c_bands before calling an iterative solver
          5189 MiB given to the printing process from OS
           824 MiB allocation reported by mallinfo(arena+hblkhd)
         54217 MiB available memory on the node where the printing process lives
     GPU memory used/free/total (MiB): 7138 / 9142 / 16280
------------------
     c_bands:  1 eigenvalues not converged
     ethr =  8.66E-06,  avg # of iterations =  1.3

     negative rho (up, down):  3.865E-01 3.431E-01

     total cpu time spent up to now is      738.9 secs

     total energy              =   -1901.46532050 Ry
     estimated scf accuracy    <       0.07389759 Ry

     total magnetization       =    34.22 Bohr mag/cell
     absolute magnetization    =    40.87 Bohr mag/cell
[tb_dev] Currently allocated     2.21E+01 Mbytes, locked:    0 /   9
[tb_pin] Currently allocated     0.00E+00 Mbytes, locked:    0 /   0

     iteration # 32     ecut=    30.00 Ry     beta= 0.40
     Davidson diagonalization with overlap

---- Real-time Memory Report at c_bands before calling an iterative solver
          5189 MiB given to the printing process from OS
           824 MiB allocation reported by mallinfo(arena+hblkhd)
         54217 MiB available memory on the node where the printing process lives
     GPU memory used/free/total (MiB): 7138 / 9142 / 16280
------------------
     ethr =  8.66E-06,  avg # of iterations =  1.0

     negative rho (up, down):  3.875E-01 3.424E-01

     total cpu time spent up to now is      756.1 secs

     total energy              =   -1901.47461501 Ry
     estimated scf accuracy    <       0.10645399 Ry

     total magnetization       =    34.18 Bohr mag/cell
     absolute magnetization    =    40.57 Bohr mag/cell
[tb_dev] Currently allocated     2.21E+01 Mbytes, locked:    0 /   9
[tb_pin] Currently allocated     0.00E+00 Mbytes, locked:    0 /   0

     iteration # 33     ecut=    30.00 Ry     beta= 0.40
     Davidson diagonalization with overlap

---- Real-time Memory Report at c_bands before calling an iterative solver
          5189 MiB given to the printing process from OS
           824 MiB allocation reported by mallinfo(arena+hblkhd)
         54217 MiB available memory on the node where the printing process lives
     GPU memory used/free/total (MiB): 7138 / 9142 / 16280
------------------
     c_bands:  1 eigenvalues not converged
     c_bands:  2 eigenvalues not converged
     c_bands:  1 eigenvalues not converged
     c_bands:  1 eigenvalues not converged
     c_bands:  2 eigenvalues not converged
     c_bands:  1 eigenvalues not converged
     c_bands:  2 eigenvalues not converged
     c_bands:  1 eigenvalues not converged
     c_bands:  2 eigenvalues not converged
     c_bands:  3 eigenvalues not converged
     c_bands:  1 eigenvalues not converged
     c_bands:  1 eigenvalues not converged
     c_bands:  2 eigenvalues not converged
     c_bands:  3 eigenvalues not converged
     c_bands:  3 eigenvalues not converged
     c_bands:  2 eigenvalues not converged
     c_bands:  2 eigenvalues not converged
     c_bands:  1 eigenvalues not converged
     c_bands:  4 eigenvalues not converged
     c_bands:  2 eigenvalues not converged
     c_bands:  2 eigenvalues not converged
     c_bands:  2 eigenvalues not converged
     c_bands:  2 eigenvalues not converged
     c_bands:  1 eigenvalues not converged
     c_bands:  1 eigenvalues not converged
     c_bands:  1 eigenvalues not converged
     c_bands:  1 eigenvalues not converged
     c_bands:  2 eigenvalues not converged
     c_bands:  2 eigenvalues not converged
     c_bands:  1 eigenvalues not converged
     c_bands:  1 eigenvalues not converged
     c_bands:  4 eigenvalues not converged
     c_bands:  1 eigenvalues not converged
     c_bands:  1 eigenvalues not converged
     c_bands:  1 eigenvalues not converged
     c_bands:  1 eigenvalues not converged
     ethr =  8.66E-06,  avg # of iterations = 14.8

     negative rho (up, down):  3.873E-01 3.425E-01

     total cpu time spent up to now is      795.1 secs

     total energy              =   -1901.48172392 Ry
     estimated scf accuracy    <       0.15296524 Ry

     total magnetization       =    34.12 Bohr mag/cell
     absolute magnetization    =    42.48 Bohr mag/cell
[tb_dev] Currently allocated     2.21E+01 Mbytes, locked:    0 /   9
[tb_pin] Currently allocated     0.00E+00 Mbytes, locked:    0 /   0

     iteration # 34     ecut=    30.00 Ry     beta= 0.40
     Davidson diagonalization with overlap

---- Real-time Memory Report at c_bands before calling an iterative solver
          5189 MiB given to the printing process from OS
           824 MiB allocation reported by mallinfo(arena+hblkhd)
         54217 MiB available memory on the node where the printing process lives
     GPU memory used/free/total (MiB): 7138 / 9142 / 16280
------------------
     c_bands:  1 eigenvalues not converged
     c_bands:  1 eigenvalues not converged
     c_bands:  1 eigenvalues not converged
     c_bands:  2 eigenvalues not converged
     c_bands:  1 eigenvalues not converged
     c_bands:  2 eigenvalues not converged
     c_bands:  1 eigenvalues not converged
     c_bands:  2 eigenvalues not converged
     c_bands:  2 eigenvalues not converged
     c_bands:  1 eigenvalues not converged
     c_bands:  2 eigenvalues not converged
     c_bands:  2 eigenvalues not converged
     c_bands:  2 eigenvalues not converged
     c_bands:  1 eigenvalues not converged
     c_bands:  1 eigenvalues not converged
     c_bands:  2 eigenvalues not converged
     c_bands:  1 eigenvalues not converged
     ethr =  8.66E-06,  avg # of iterations = 12.4

     negative rho (up, down):  3.874E-01 3.423E-01

     total cpu time spent up to now is      826.8 secs

     total energy              =   -1901.49096892 Ry
     estimated scf accuracy    <       0.02063488 Ry

     total magnetization       =    34.15 Bohr mag/cell
     absolute magnetization    =    42.27 Bohr mag/cell
[tb_dev] Currently allocated     2.21E+01 Mbytes, locked:    0 /   9
[tb_pin] Currently allocated     0.00E+00 Mbytes, locked:    0 /   0

     iteration # 35     ecut=    30.00 Ry     beta= 0.40
     Davidson diagonalization with overlap

---- Real-time Memory Report at c_bands before calling an iterative solver
          5189 MiB given to the printing process from OS
           824 MiB allocation reported by mallinfo(arena+hblkhd)
         54217 MiB available memory on the node where the printing process lives
     GPU memory used/free/total (MiB): 7138 / 9142 / 16280
------------------
     ethr =  8.66E-06,  avg # of iterations =  2.4

     negative rho (up, down):  3.873E-01 3.424E-01

     total cpu time spent up to now is      845.7 secs

     total energy              =   -1901.49932323 Ry
     estimated scf accuracy    <       0.00861693 Ry

     total magnetization       =    34.11 Bohr mag/cell
     absolute magnetization    =    42.46 Bohr mag/cell
[tb_dev] Currently allocated     2.21E+01 Mbytes, locked:    0 /   9
[tb_pin] Currently allocated     0.00E+00 Mbytes, locked:    0 /   0

     iteration # 36     ecut=    30.00 Ry     beta= 0.40
     Davidson diagonalization with overlap

---- Real-time Memory Report at c_bands before calling an iterative solver
          5189 MiB given to the printing process from OS
           824 MiB allocation reported by mallinfo(arena+hblkhd)
         54217 MiB available memory on the node where the printing process lives
     GPU memory used/free/total (MiB): 7138 / 9142 / 16280
------------------
     c_bands:  1 eigenvalues not converged
     c_bands:  1 eigenvalues not converged
     c_bands:  1 eigenvalues not converged
     c_bands:  2 eigenvalues not converged
     c_bands:  1 eigenvalues not converged
     c_bands:  1 eigenvalues not converged
     c_bands:  1 eigenvalues not converged
     c_bands:  1 eigenvalues not converged
     c_bands:  1 eigenvalues not converged
     c_bands:  3 eigenvalues not converged
     c_bands:  1 eigenvalues not converged
     c_bands:  1 eigenvalues not converged
     c_bands:  2 eigenvalues not converged
     c_bands:  1 eigenvalues not converged
     c_bands:  1 eigenvalues not converged
     c_bands:  3 eigenvalues not converged
     c_bands:  1 eigenvalues not converged
     c_bands:  1 eigenvalues not converged
     c_bands:  1 eigenvalues not converged
     c_bands:  1 eigenvalues not converged
     c_bands:  1 eigenvalues not converged
     c_bands:  3 eigenvalues not converged
     c_bands:  1 eigenvalues not converged
     c_bands:  1 eigenvalues not converged
     c_bands:  2 eigenvalues not converged
     c_bands:  2 eigenvalues not converged
     c_bands:  1 eigenvalues not converged
     c_bands:  1 eigenvalues not converged
     c_bands:  2 eigenvalues not converged
     c_bands:  2 eigenvalues not converged
     c_bands:  2 eigenvalues not converged
     c_bands:  1 eigenvalues not converged
     c_bands:  2 eigenvalues not converged
     c_bands:  2 eigenvalues not converged
     c_bands:  2 eigenvalues not converged
     c_bands:  2 eigenvalues not converged
     c_bands:  1 eigenvalues not converged
     c_bands:  2 eigenvalues not converged
     c_bands:  1 eigenvalues not converged
     c_bands:  1 eigenvalues not converged
     c_bands:  1 eigenvalues not converged
     c_bands:  2 eigenvalues not converged
     c_bands:  1 eigenvalues not converged
     c_bands:  1 eigenvalues not converged
     ethr =  5.13E-06,  avg # of iterations = 16.1

     negative rho (up, down):  3.872E-01 3.424E-01

     total cpu time spent up to now is      883.0 secs

     total energy              =   -1901.50182499 Ry
     estimated scf accuracy    <       0.07701065 Ry

     total magnetization       =    33.86 Bohr mag/cell
     absolute magnetization    =    43.08 Bohr mag/cell
[tb_dev] Currently allocated     2.21E+01 Mbytes, locked:    0 /   9
[tb_pin] Currently allocated     0.00E+00 Mbytes, locked:    0 /   0

     iteration # 37     ecut=    30.00 Ry     beta= 0.40
     Davidson diagonalization with overlap

---- Real-time Memory Report at c_bands before calling an iterative solver
          5189 MiB given to the printing process from OS
           824 MiB allocation reported by mallinfo(arena+hblkhd)
         54217 MiB available memory on the node where the printing process lives
     GPU memory used/free/total (MiB): 7138 / 9142 / 16280
------------------
     c_bands:  1 eigenvalues not converged
     c_bands:  1 eigenvalues not converged
     c_bands:  2 eigenvalues not converged
     ethr =  5.13E-06,  avg # of iterations =  3.1

     negative rho (up, down):  3.872E-01 3.426E-01

     total cpu time spent up to now is      902.3 secs

     total energy              =   -1901.50896997 Ry
     estimated scf accuracy    <       0.08454408 Ry

     total magnetization       =    33.93 Bohr mag/cell
     absolute magnetization    =    42.98 Bohr mag/cell
[tb_dev] Currently allocated     2.21E+01 Mbytes, locked:    0 /   9
[tb_pin] Currently allocated     0.00E+00 Mbytes, locked:    0 /   0

     iteration # 38     ecut=    30.00 Ry     beta= 0.40
     Davidson diagonalization with overlap

---- Real-time Memory Report at c_bands before calling an iterative solver
          5189 MiB given to the printing process from OS
           824 MiB allocation reported by mallinfo(arena+hblkhd)
         54217 MiB available memory on the node where the printing process lives
     GPU memory used/free/total (MiB): 7138 / 9142 / 16280
------------------
     c_bands:  1 eigenvalues not converged
     c_bands:  1 eigenvalues not converged
     c_bands:  2 eigenvalues not converged
     c_bands:  2 eigenvalues not converged
     c_bands:  2 eigenvalues not converged
     c_bands:  2 eigenvalues not converged
     c_bands:  2 eigenvalues not converged
     c_bands:  3 eigenvalues not converged
     c_bands:  1 eigenvalues not converged
     c_bands:  1 eigenvalues not converged
     c_bands:  2 eigenvalues not converged
     c_bands:  1 eigenvalues not converged
     c_bands:  2 eigenvalues not converged
     c_bands:  2 eigenvalues not converged
     c_bands:  2 eigenvalues not converged
     c_bands:  1 eigenvalues not converged
     c_bands:  2 eigenvalues not converged
     c_bands:  1 eigenvalues not converged
     c_bands:  1 eigenvalues not converged
     c_bands:  1 eigenvalues not converged
     c_bands:  2 eigenvalues not converged
     ethr =  5.13E-06,  avg # of iterations = 11.6

     negative rho (up, down):  3.874E-01 3.426E-01

     total cpu time spent up to now is      930.4 secs

     total energy              =   -1901.51679972 Ry
     estimated scf accuracy    <       0.09276450 Ry

     total magnetization       =    33.75 Bohr mag/cell
     absolute magnetization    =    43.36 Bohr mag/cell
[tb_dev] Currently allocated     2.21E+01 Mbytes, locked:    0 /   9
[tb_pin] Currently allocated     0.00E+00 Mbytes, locked:    0 /   0

     iteration # 39     ecut=    30.00 Ry     beta= 0.40
     Davidson diagonalization with overlap

---- Real-time Memory Report at c_bands before calling an iterative solver
          5189 MiB given to the printing process from OS
           824 MiB allocation reported by mallinfo(arena+hblkhd)
         54217 MiB available memory on the node where the printing process lives
     GPU memory used/free/total (MiB): 7138 / 9142 / 16280
------------------
     c_bands:  2 eigenvalues not converged
     c_bands:  2 eigenvalues not converged
     c_bands:  2 eigenvalues not converged
     c_bands:  1 eigenvalues not converged
     c_bands:  1 eigenvalues not converged
     c_bands:  1 eigenvalues not converged
     c_bands:  1 eigenvalues not converged
     c_bands:  2 eigenvalues not converged
     c_bands:  1 eigenvalues not converged
     c_bands:  1 eigenvalues not converged
     c_bands:  2 eigenvalues not converged
     c_bands:  2 eigenvalues not converged
     c_bands:  1 eigenvalues not converged
     c_bands:  2 eigenvalues not converged
     c_bands:  1 eigenvalues not converged
     c_bands:  2 eigenvalues not converged
     c_bands:  2 eigenvalues not converged
     c_bands:  2 eigenvalues not converged
     c_bands:  1 eigenvalues not converged
     c_bands:  2 eigenvalues not converged
     c_bands:  2 eigenvalues not converged
     c_bands:  2 eigenvalues not converged
     c_bands:  2 eigenvalues not converged
     c_bands:  1 eigenvalues not converged
     c_bands:  1 eigenvalues not converged
     c_bands:  1 eigenvalues not converged
     c_bands:  1 eigenvalues not converged
     c_bands:  2 eigenvalues not converged
     c_bands:  2 eigenvalues not converged
     c_bands:  2 eigenvalues not converged
     c_bands:  5 eigenvalues not converged
     c_bands:  2 eigenvalues not converged
     c_bands:  1 eigenvalues not converged
     c_bands:  2 eigenvalues not converged
     c_bands:  2 eigenvalues not converged
     c_bands:  2 eigenvalues not converged
     ethr =  5.13E-06,  avg # of iterations = 13.4

     negative rho (up, down):  3.872E-01 3.426E-01

     total cpu time spent up to now is      962.5 secs

     total energy              =   -1901.51339957 Ry
     estimated scf accuracy    <       0.16271280 Ry

     total magnetization       =    33.61 Bohr mag/cell
     absolute magnetization    =    44.48 Bohr mag/cell
[tb_dev] Currently allocated     2.21E+01 Mbytes, locked:    0 /   9
[tb_pin] Currently allocated     0.00E+00 Mbytes, locked:    0 /   0

     iteration # 40     ecut=    30.00 Ry     beta= 0.40
     Davidson diagonalization with overlap

---- Real-time Memory Report at c_bands before calling an iterative solver
          5189 MiB given to the printing process from OS
           824 MiB allocation reported by mallinfo(arena+hblkhd)
         54217 MiB available memory on the node where the printing process lives
     GPU memory used/free/total (MiB): 7138 / 9142 / 16280
------------------
     c_bands:  2 eigenvalues not converged
     c_bands:  1 eigenvalues not converged
     c_bands:  2 eigenvalues not converged
     c_bands:  1 eigenvalues not converged
     c_bands:  2 eigenvalues not converged
     c_bands:  1 eigenvalues not converged
     c_bands:  1 eigenvalues not converged
     c_bands:  1 eigenvalues not converged
     c_bands:  1 eigenvalues not converged
     c_bands:  1 eigenvalues not converged
     c_bands:  1 eigenvalues not converged
     c_bands:  1 eigenvalues not converged
     c_bands:  2 eigenvalues not converged
     c_bands:  1 eigenvalues not converged
     c_bands:  2 eigenvalues not converged
     c_bands:  1 eigenvalues not converged
     ethr =  5.13E-06,  avg # of iterations =  8.0

     negative rho (up, down):  3.872E-01 3.426E-01

     total cpu time spent up to now is      986.2 secs

     total energy              =   -1901.51507309 Ry
     estimated scf accuracy    <       0.25879388 Ry

     total magnetization       =    33.87 Bohr mag/cell
     absolute magnetization    =    44.16 Bohr mag/cell
[tb_dev] Currently allocated     2.21E+01 Mbytes, locked:    0 /   9
[tb_pin] Currently allocated     0.00E+00 Mbytes, locked:    0 /   0

     iteration # 41     ecut=    30.00 Ry     beta= 0.40
     Davidson diagonalization with overlap

---- Real-time Memory Report at c_bands before calling an iterative solver
          5189 MiB given to the printing process from OS
           824 MiB allocation reported by mallinfo(arena+hblkhd)
         54217 MiB available memory on the node where the printing process lives
     GPU memory used/free/total (MiB): 7138 / 9142 / 16280
------------------
     c_bands:  1 eigenvalues not converged
     c_bands:  2 eigenvalues not converged
     c_bands:  1 eigenvalues not converged
     c_bands:  1 eigenvalues not converged
     c_bands:  1 eigenvalues not converged
     c_bands:  1 eigenvalues not converged
     c_bands:  2 eigenvalues not converged
     ethr =  5.13E-06,  avg # of iterations =  4.0

     negative rho (up, down):  3.872E-01 3.424E-01

     total cpu time spent up to now is     1006.4 secs

     total energy              =   -1901.50769672 Ry
     estimated scf accuracy    <       0.34034885 Ry

     total magnetization       =    34.04 Bohr mag/cell
     absolute magnetization    =    44.05 Bohr mag/cell
[tb_dev] Currently allocated     2.21E+01 Mbytes, locked:    0 /   9
[tb_pin] Currently allocated     0.00E+00 Mbytes, locked:    0 /   0

     iteration # 42     ecut=    30.00 Ry     beta= 0.40
     Davidson diagonalization with overlap

---- Real-time Memory Report at c_bands before calling an iterative solver
          5189 MiB given to the printing process from OS
           824 MiB allocation reported by mallinfo(arena+hblkhd)
         54218 MiB available memory on the node where the printing process lives
     GPU memory used/free/total (MiB): 7138 / 9142 / 16280
------------------
     c_bands:  1 eigenvalues not converged
     c_bands:  1 eigenvalues not converged
     c_bands:  1 eigenvalues not converged
     c_bands:  1 eigenvalues not converged
     c_bands:  1 eigenvalues not converged
     c_bands:  3 eigenvalues not converged
     c_bands:  1 eigenvalues not converged
     c_bands:  2 eigenvalues not converged
     c_bands:  2 eigenvalues not converged
     c_bands:  1 eigenvalues not converged
     c_bands:  2 eigenvalues not converged
     c_bands:  2 eigenvalues not converged
     c_bands:  2 eigenvalues not converged
     c_bands:  2 eigenvalues not converged
     c_bands:  1 eigenvalues not converged
     c_bands:  1 eigenvalues not converged
     c_bands:  1 eigenvalues not converged
     c_bands:  2 eigenvalues not converged
     c_bands:  1 eigenvalues not converged
     c_bands:  1 eigenvalues not converged
     c_bands:  2 eigenvalues not converged
     c_bands:  2 eigenvalues not converged
     c_bands:  2 eigenvalues not converged
     c_bands:  3 eigenvalues not converged
     c_bands:  2 eigenvalues not converged
     c_bands:  2 eigenvalues not converged
     c_bands:  1 eigenvalues not converged
     c_bands:  1 eigenvalues not converged
     c_bands:  1 eigenvalues not converged
     c_bands:  1 eigenvalues not converged
     c_bands:  2 eigenvalues not converged
     c_bands:  1 eigenvalues not converged
     c_bands:  1 eigenvalues not converged
     ethr =  5.13E-06,  avg # of iterations = 16.0

     negative rho (up, down):  3.873E-01 3.424E-01

     total cpu time spent up to now is     1040.2 secs

     total energy              =   -1901.51155233 Ry
     estimated scf accuracy    <       0.35552280 Ry

     total magnetization       =    34.37 Bohr mag/cell
     absolute magnetization    =    43.63 Bohr mag/cell
[tb_dev] Currently allocated     2.21E+01 Mbytes, locked:    0 /   9
[tb_pin] Currently allocated     0.00E+00 Mbytes, locked:    0 /   0

     iteration # 43     ecut=    30.00 Ry     beta= 0.40
     Davidson diagonalization with overlap

---- Real-time Memory Report at c_bands before calling an iterative solver
          5189 MiB given to the printing process from OS
           824 MiB allocation reported by mallinfo(arena+hblkhd)
         54218 MiB available memory on the node where the printing process lives
     GPU memory used/free/total (MiB): 7138 / 9142 / 16280
------------------
     c_bands:  1 eigenvalues not converged
     c_bands:  1 eigenvalues not converged
     ethr =  5.13E-06,  avg # of iterations =  2.9

     negative rho (up, down):  3.873E-01 3.423E-01

     total cpu time spent up to now is     1059.1 secs

     total energy              =   -1901.50913304 Ry
     estimated scf accuracy    <       0.33145915 Ry

     total magnetization       =    34.36 Bohr mag/cell
     absolute magnetization    =    43.72 Bohr mag/cell
[tb_dev] Currently allocated     2.21E+01 Mbytes, locked:    0 /   9
[tb_pin] Currently allocated     0.00E+00 Mbytes, locked:    0 /   0

     iteration # 44     ecut=    30.00 Ry     beta= 0.40
     Davidson diagonalization with overlap

---- Real-time Memory Report at c_bands before calling an iterative solver
          5189 MiB given to the printing process from OS
           824 MiB allocation reported by mallinfo(arena+hblkhd)
         54213 MiB available memory on the node where the printing process lives
     GPU memory used/free/total (MiB): 7138 / 9142 / 16280
------------------
     ethr =  5.13E-06,  avg # of iterations =  1.1

     negative rho (up, down):  3.872E-01 3.423E-01

     total cpu time spent up to now is     1076.3 secs

     total energy              =   -1901.50783980 Ry
     estimated scf accuracy    <       0.36369360 Ry

     total magnetization       =    34.42 Bohr mag/cell
     absolute magnetization    =    43.63 Bohr mag/cell
[tb_dev] Currently allocated     2.21E+01 Mbytes, locked:    0 /   9
[tb_pin] Currently allocated     0.00E+00 Mbytes, locked:    0 /   0

     iteration # 45     ecut=    30.00 Ry     beta= 0.40
     Davidson diagonalization with overlap

---- Real-time Memory Report at c_bands before calling an iterative solver
          5189 MiB given to the printing process from OS
           824 MiB allocation reported by mallinfo(arena+hblkhd)
         54217 MiB available memory on the node where the printing process lives
     GPU memory used/free/total (MiB): 7138 / 9142 / 16280
------------------
     c_bands:  2 eigenvalues not converged
     c_bands:  1 eigenvalues not converged
     c_bands:  2 eigenvalues not converged
     c_bands:  2 eigenvalues not converged
     c_bands:  2 eigenvalues not converged
     c_bands:  3 eigenvalues not converged
     c_bands:  2 eigenvalues not converged
     c_bands:  1 eigenvalues not converged
     c_bands:  2 eigenvalues not converged
     c_bands:  2 eigenvalues not converged
     c_bands:  2 eigenvalues not converged
     c_bands:  2 eigenvalues not converged
     c_bands:  1 eigenvalues not converged
     c_bands:  2 eigenvalues not converged
     c_bands:  1 eigenvalues not converged
     c_bands:  1 eigenvalues not converged
     c_bands:  1 eigenvalues not converged
     c_bands:  1 eigenvalues not converged
     c_bands:  1 eigenvalues not converged
     c_bands:  2 eigenvalues not converged
     c_bands:  1 eigenvalues not converged
     c_bands:  2 eigenvalues not converged
     c_bands:  1 eigenvalues not converged
     c_bands:  2 eigenvalues not converged
     c_bands:  1 eigenvalues not converged
     c_bands:  1 eigenvalues not converged
     c_bands:  1 eigenvalues not converged
     c_bands:  3 eigenvalues not converged
     c_bands:  2 eigenvalues not converged
     c_bands:  1 eigenvalues not converged
     c_bands:  1 eigenvalues not converged
     c_bands:  2 eigenvalues not converged
     c_bands:  1 eigenvalues not converged
     c_bands:  1 eigenvalues not converged
     c_bands:  1 eigenvalues not converged
     c_bands:  2 eigenvalues not converged
     c_bands:  2 eigenvalues not converged
     c_bands:  1 eigenvalues not converged
     ethr =  5.13E-06,  avg # of iterations = 16.4

     negative rho (up, down):  3.874E-01 3.423E-01

     total cpu time spent up to now is     1118.7 secs

     total energy              =   -1901.51142063 Ry
     estimated scf accuracy    <       0.22856380 Ry

     total magnetization       =    34.10 Bohr mag/cell
     absolute magnetization    =    44.28 Bohr mag/cell
[tb_dev] Currently allocated     2.21E+01 Mbytes, locked:    0 /   9
[tb_pin] Currently allocated     0.00E+00 Mbytes, locked:    0 /   0

     iteration # 46     ecut=    30.00 Ry     beta= 0.40
     Davidson diagonalization with overlap

---- Real-time Memory Report at c_bands before calling an iterative solver
          5189 MiB given to the printing process from OS
           824 MiB allocation reported by mallinfo(arena+hblkhd)
         54217 MiB available memory on the node where the printing process lives
     GPU memory used/free/total (MiB): 7138 / 9142 / 16280
------------------
     c_bands:  1 eigenvalues not converged
     c_bands:  1 eigenvalues not converged
     c_bands:  1 eigenvalues not converged
     c_bands:  2 eigenvalues not converged
     c_bands:  1 eigenvalues not converged
     c_bands:  1 eigenvalues not converged
     c_bands:  1 eigenvalues not converged
     c_bands:  2 eigenvalues not converged
     c_bands:  2 eigenvalues not converged
     c_bands:  2 eigenvalues not converged
     c_bands:  2 eigenvalues not converged
     c_bands:  3 eigenvalues not converged
     c_bands:  1 eigenvalues not converged
     c_bands:  1 eigenvalues not converged
     c_bands:  1 eigenvalues not converged
     c_bands:  1 eigenvalues not converged
     c_bands:  1 eigenvalues not converged
     c_bands:  1 eigenvalues not converged
     c_bands:  1 eigenvalues not converged
     c_bands:  1 eigenvalues not converged
     c_bands:  1 eigenvalues not converged
     ethr =  5.13E-06,  avg # of iterations = 14.1

     negative rho (up, down):  3.872E-01 3.420E-01

     total cpu time spent up to now is     1157.1 secs

     total energy              =   -1901.49476378 Ry
     estimated scf accuracy    <       0.05293523 Ry

     total magnetization       =    33.61 Bohr mag/cell
     absolute magnetization    =    44.58 Bohr mag/cell
[tb_dev] Currently allocated     2.21E+01 Mbytes, locked:    0 /   9
[tb_pin] Currently allocated     0.00E+00 Mbytes, locked:    0 /   0

     iteration # 47     ecut=    30.00 Ry     beta= 0.40
     Davidson diagonalization with overlap

---- Real-time Memory Report at c_bands before calling an iterative solver
          5189 MiB given to the printing process from OS
           824 MiB allocation reported by mallinfo(arena+hblkhd)
         54217 MiB available memory on the node where the printing process lives
     GPU memory used/free/total (MiB): 7138 / 9142 / 16280
------------------
     c_bands:  3 eigenvalues not converged
     c_bands:  1 eigenvalues not converged
     c_bands:  1 eigenvalues not converged
     c_bands:  1 eigenvalues not converged
     c_bands:  1 eigenvalues not converged
     c_bands:  2 eigenvalues not converged
     c_bands:  2 eigenvalues not converged
     c_bands:  1 eigenvalues not converged
     c_bands:  1 eigenvalues not converged
     c_bands:  2 eigenvalues not converged
     c_bands:  1 eigenvalues not converged
     c_bands:  1 eigenvalues not converged
     c_bands:  2 eigenvalues not converged
     c_bands:  1 eigenvalues not converged
     c_bands:  2 eigenvalues not converged
[...]
         54207 MiB available memory on the node where the printing process lives
     GPU memory used/free/total (MiB): 7138 / 9142 / 16280
------------------
     c_bands:  1 eigenvalues not converged
     c_bands:  1 eigenvalues not converged
     c_bands:  1 eigenvalues not converged
     c_bands:  1 eigenvalues not converged
     c_bands:  1 eigenvalues not converged
     c_bands:  2 eigenvalues not converged
     c_bands:  1 eigenvalues not converged
     c_bands:  1 eigenvalues not converged
     c_bands:  1 eigenvalues not converged
     c_bands:  1 eigenvalues not converged
     c_bands:  1 eigenvalues not converged
     c_bands:  1 eigenvalues not converged
     c_bands:  1 eigenvalues not converged
     c_bands:  2 eigenvalues not converged
     c_bands:  1 eigenvalues not converged
     c_bands:  1 eigenvalues not converged
     c_bands:  1 eigenvalues not converged
     c_bands:  1 eigenvalues not converged
     c_bands:  2 eigenvalues not converged
     c_bands:  1 eigenvalues not converged
     c_bands:  1 eigenvalues not converged
     ethr =  5.13E-06,  avg # of iterations =  9.0

     negative rho (up, down):  3.884E-01 3.422E-01

     total cpu time spent up to now is     1896.3 secs

     total energy              =   -1901.58807690 Ry
     estimated scf accuracy    <       0.12430893 Ry

     total magnetization       =    33.29 Bohr mag/cell
     absolute magnetization    =    47.43 Bohr mag/cell
[tb_dev] Currently allocated     2.21E+01 Mbytes, locked:    0 /   9
[tb_pin] Currently allocated     0.00E+00 Mbytes, locked:    0 /   0

     iteration # 73     ecut=    30.00 Ry     beta= 0.40
     Davidson diagonalization with overlap

---- Real-time Memory Report at c_bands before calling an iterative solver
          5189 MiB given to the printing process from OS
           824 MiB allocation reported by mallinfo(arena+hblkhd)
         54209 MiB available memory on the node where the printing process lives
     GPU memory used/free/total (MiB): 7138 / 9142 / 16280
------------------
     c_bands:  1 eigenvalues not converged
     c_bands:  1 eigenvalues not converged
     ethr =  5.13E-06,  avg # of iterations =  5.9

     negative rho (up, down):  3.883E-01 3.418E-01

     total cpu time spent up to now is     1918.9 secs

     total energy              =   -1901.52565708 Ry
     estimated scf accuracy    <       0.11309731 Ry

     total magnetization       =    33.02 Bohr mag/cell
     absolute magnetization    =    47.89 Bohr mag/cell
[tb_dev] Currently allocated     2.21E+01 Mbytes, locked:    0 /   9
[tb_pin] Currently allocated     0.00E+00 Mbytes, locked:    0 /   0

     iteration # 74     ecut=    30.00 Ry     beta= 0.40
     Davidson diagonalization with overlap

---- Real-time Memory Report at c_bands before calling an iterative solver
          5189 MiB given to the printing process from OS
           824 MiB allocation reported by mallinfo(arena+hblkhd)
         54212 MiB available memory on the node where the printing process lives
     GPU memory used/free/total (MiB): 7138 / 9142 / 16280
------------------
     c_bands:  1 eigenvalues not converged
     c_bands:  1 eigenvalues not converged
     ethr =  5.13E-06,  avg # of iterations =  9.2

     negative rho (up, down):  3.885E-01 3.424E-01

     total cpu time spent up to now is     1949.1 secs

     total energy              =   -1901.56900312 Ry
     estimated scf accuracy    <       0.21427440 Ry

     total magnetization       =    34.14 Bohr mag/cell
     absolute magnetization    =    46.96 Bohr mag/cell
[tb_dev] Currently allocated     2.21E+01 Mbytes, locked:    0 /   9
[tb_pin] Currently allocated     0.00E+00 Mbytes, locked:    0 /   0

     iteration # 75     ecut=    30.00 Ry     beta= 0.40
     Davidson diagonalization with overlap

---- Real-time Memory Report at c_bands before calling an iterative solver
          5189 MiB given to the printing process from OS
           824 MiB allocation reported by mallinfo(arena+hblkhd)
         54214 MiB available memory on the node where the printing process lives
     GPU memory used/free/total (MiB): 7138 / 9142 / 16280
------------------
     c_bands:  1 eigenvalues not converged
     c_bands:  2 eigenvalues not converged
     c_bands:  1 eigenvalues not converged
     c_bands:  1 eigenvalues not converged
     c_bands:  1 eigenvalues not converged
     c_bands:  1 eigenvalues not converged
     c_bands:  1 eigenvalues not converged
     c_bands:  2 eigenvalues not converged
     c_bands:  1 eigenvalues not converged
     c_bands:  2 eigenvalues not converged
     c_bands:  1 eigenvalues not converged
     c_bands:  1 eigenvalues not converged
     c_bands:  1 eigenvalues not converged
     c_bands:  2 eigenvalues not converged
     c_bands:  1 eigenvalues not converged
     c_bands:  1 eigenvalues not converged
     c_bands:  1 eigenvalues not converged
     c_bands:  2 eigenvalues not converged
     c_bands:  1 eigenvalues not converged
     c_bands:  2 eigenvalues not converged
     c_bands:  2 eigenvalues not converged
     c_bands:  1 eigenvalues not converged
     c_bands:  1 eigenvalues not converged
     c_bands:  1 eigenvalues not converged
     c_bands:  2 eigenvalues not converged
     c_bands:  1 eigenvalues not converged
     c_bands:  1 eigenvalues not converged
     c_bands:  1 eigenvalues not converged
     c_bands:  2 eigenvalues not converged
     ethr =  5.13E-06,  avg # of iterations = 15.2

     negative rho (up, down):  3.884E-01 3.421E-01

     total cpu time spent up to now is     1989.4 secs

     total energy              =   -1901.58133393 Ry
     estimated scf accuracy    <       0.11060702 Ry

     total magnetization       =    32.41 Bohr mag/cell
     absolute magnetization    =    48.01 Bohr mag/cell
[tb_dev] Currently allocated     2.21E+01 Mbytes, locked:    0 /   9
[tb_pin] Currently allocated     0.00E+00 Mbytes, locked:    0 /   0

     iteration # 76     ecut=    30.00 Ry     beta= 0.40
     Davidson diagonalization with overlap

---- Real-time Memory Report at c_bands before calling an iterative solver
          5189 MiB given to the printing process from OS
           824 MiB allocation reported by mallinfo(arena+hblkhd)
         54215 MiB available memory on the node where the printing process lives
     GPU memory used/free/total (MiB): 7138 / 9142 / 16280
------------------
     c_bands:  1 eigenvalues not converged
     c_bands:  2 eigenvalues not converged
     c_bands:  1 eigenvalues not converged
     c_bands:  1 eigenvalues not converged
     c_bands:  2 eigenvalues not converged
     c_bands:  1 eigenvalues not converged
     c_bands:  2 eigenvalues not converged
     c_bands:  1 eigenvalues not converged
     c_bands:  3 eigenvalues not converged
     c_bands:  2 eigenvalues not converged
     c_bands:  2 eigenvalues not converged
     c_bands:  2 eigenvalues not converged
     c_bands:  2 eigenvalues not converged
     c_bands:  2 eigenvalues not converged
     c_bands:  1 eigenvalues not converged
     c_bands:  1 eigenvalues not converged
     c_bands:  1 eigenvalues not converged
     c_bands:  1 eigenvalues not converged
     c_bands:  1 eigenvalues not converged
     c_bands:  1 eigenvalues not converged
     c_bands:  2 eigenvalues not converged
     c_bands:  1 eigenvalues not converged
     c_bands:  2 eigenvalues not converged
     c_bands:  2 eigenvalues not converged
     c_bands:  1 eigenvalues not converged
     c_bands:  1 eigenvalues not converged
     c_bands:  1 eigenvalues not converged
     c_bands:  3 eigenvalues not converged
     c_bands:  1 eigenvalues not converged
     c_bands:  3 eigenvalues not converged
     c_bands:  1 eigenvalues not converged
     c_bands:  1 eigenvalues not converged
     c_bands:  1 eigenvalues not converged
     c_bands:  1 eigenvalues not converged
     c_bands:  1 eigenvalues not converged
     c_bands:  1 eigenvalues not converged
     c_bands:  1 eigenvalues not converged
     c_bands:  1 eigenvalues not converged
     c_bands:  1 eigenvalues not converged
     c_bands:  1 eigenvalues not converged
     c_bands:  1 eigenvalues not converged
     c_bands:  1 eigenvalues not converged
     c_bands:  2 eigenvalues not converged
     c_bands:  1 eigenvalues not converged
     c_bands:  2 eigenvalues not converged
     c_bands:  1 eigenvalues not converged
     c_bands:  1 eigenvalues not converged
     c_bands:  2 eigenvalues not converged
     c_bands:  1 eigenvalues not converged
     c_bands:  1 eigenvalues not converged
     c_bands:  2 eigenvalues not converged
     c_bands:  2 eigenvalues not converged
     c_bands:  2 eigenvalues not converged
     c_bands:  1 eigenvalues not converged
     c_bands:  3 eigenvalues not converged
     ethr =  5.13E-06,  avg # of iterations = 18.0

     negative rho (up, down):  3.881E-01 3.423E-01

     total cpu time spent up to now is     2032.5 secs

     total energy              =   -1901.58561651 Ry
     estimated scf accuracy    <       0.09210877 Ry

     total magnetization       =    31.84 Bohr mag/cell
     absolute magnetization    =    47.11 Bohr mag/cell
[tb_dev] Currently allocated     2.21E+01 Mbytes, locked:    0 /   9
[tb_pin] Currently allocated     0.00E+00 Mbytes, locked:    0 /   0

     iteration # 77     ecut=    30.00 Ry     beta= 0.40
     Davidson diagonalization with overlap

---- Real-time Memory Report at c_bands before calling an iterative solver
          5189 MiB given to the printing process from OS
           824 MiB allocation reported by mallinfo(arena+hblkhd)
         54216 MiB available memory on the node where the printing process lives
     GPU memory used/free/total (MiB): 7138 / 9142 / 16280
------------------
     c_bands:  1 eigenvalues not converged
     c_bands:  1 eigenvalues not converged
     c_bands:  1 eigenvalues not converged
     c_bands:  2 eigenvalues not converged
     c_bands:  1 eigenvalues not converged
     c_bands:  1 eigenvalues not converged
     c_bands:  1 eigenvalues not converged
     c_bands:  1 eigenvalues not converged
     c_bands:  1 eigenvalues not converged
     c_bands:  1 eigenvalues not converged
     ethr =  5.13E-06,  avg # of iterations = 15.5

     negative rho (up, down):  3.883E-01 3.423E-01

     total cpu time spent up to now is     2071.6 secs

     total energy              =   -1901.60267322 Ry
     estimated scf accuracy    <       0.06784527 Ry

     total magnetization       =    32.60 Bohr mag/cell
     absolute magnetization    =    47.70 Bohr mag/cell
[tb_dev] Currently allocated     2.21E+01 Mbytes, locked:    0 /   9
[tb_pin] Currently allocated     0.00E+00 Mbytes, locked:    0 /   0

     iteration # 78     ecut=    30.00 Ry     beta= 0.40
     Davidson diagonalization with overlap

---- Real-time Memory Report at c_bands before calling an iterative solver
          5189 MiB given to the printing process from OS
           824 MiB allocation reported by mallinfo(arena+hblkhd)
         54215 MiB available memory on the node where the printing process lives
     GPU memory used/free/total (MiB): 7138 / 9142 / 16280
------------------
     ethr =  5.13E-06,  avg # of iterations =  2.2

     negative rho (up, down):  3.880E-01 3.422E-01

     total cpu time spent up to now is     2090.2 secs

     total energy              =   -1901.55063154 Ry
     estimated scf accuracy    <       0.05587082 Ry

     total magnetization       =    32.55 Bohr mag/cell
     absolute magnetization    =    47.74 Bohr mag/cell
[tb_dev] Currently allocated     2.21E+01 Mbytes, locked:    0 /   9
[tb_pin] Currently allocated     0.00E+00 Mbytes, locked:    0 /   0

     iteration # 79     ecut=    30.00 Ry     beta= 0.40
     Davidson diagonalization with overlap

---- Real-time Memory Report at c_bands before calling an iterative solver
          5189 MiB given to the printing process from OS
           824 MiB allocation reported by mallinfo(arena+hblkhd)
         54216 MiB available memory on the node where the printing process lives
     GPU memory used/free/total (MiB): 7138 / 9142 / 16280
------------------
     c_bands:  2 eigenvalues not converged
     c_bands:  1 eigenvalues not converged
     c_bands:  2 eigenvalues not converged
     c_bands:  2 eigenvalues not converged
     c_bands:  1 eigenvalues not converged
     c_bands:  2 eigenvalues not converged
     c_bands:  1 eigenvalues not converged
     c_bands:  2 eigenvalues not converged
     c_bands:  1 eigenvalues not converged
     c_bands:  2 eigenvalues not converged
     c_bands:  1 eigenvalues not converged
     c_bands:  1 eigenvalues not converged
     c_bands:  2 eigenvalues not converged
     c_bands:  1 eigenvalues not converged
     c_bands:  1 eigenvalues not converged
     c_bands:  1 eigenvalues not converged
     c_bands:  2 eigenvalues not converged
     c_bands:  1 eigenvalues not converged
     c_bands:  2 eigenvalues not converged
     c_bands:  1 eigenvalues not converged
     c_bands:  1 eigenvalues not converged
     c_bands:  2 eigenvalues not converged
     c_bands:  2 eigenvalues not converged
     c_bands:  3 eigenvalues not converged
     c_bands:  1 eigenvalues not converged
     c_bands:  1 eigenvalues not converged
     c_bands:  1 eigenvalues not converged
     c_bands:  1 eigenvalues not converged
     c_bands:  1 eigenvalues not converged
     c_bands:  1 eigenvalues not converged
     ethr =  5.13E-06,  avg # of iterations = 15.9

     negative rho (up, down):  3.883E-01 3.427E-01

     total cpu time spent up to now is     2129.1 secs

     total energy              =   -1901.60818584 Ry
     estimated scf accuracy    <       0.03646384 Ry

     total magnetization       =    32.51 Bohr mag/cell
     absolute magnetization    =    46.83 Bohr mag/cell
[tb_dev] Currently allocated     2.21E+01 Mbytes, locked:    0 /   9
[tb_pin] Currently allocated     0.00E+00 Mbytes, locked:    0 /   0

     iteration # 80     ecut=    30.00 Ry     beta= 0.40
     Davidson diagonalization with overlap

---- Real-time Memory Report at c_bands before calling an iterative solver
          5189 MiB given to the printing process from OS
           824 MiB allocation reported by mallinfo(arena+hblkhd)
         54209 MiB available memory on the node where the printing process lives
     GPU memory used/free/total (MiB): 7138 / 9142 / 16280
------------------
     c_bands:  1 eigenvalues not converged
     c_bands:  1 eigenvalues not converged
     c_bands:  1 eigenvalues not converged
     c_bands:  1 eigenvalues not converged
     c_bands:  2 eigenvalues not converged
     c_bands:  1 eigenvalues not converged
     c_bands:  2 eigenvalues not converged
     ethr =  5.13E-06,  avg # of iterations = 13.8

     negative rho (up, down):  3.884E-01 3.430E-01

     total cpu time spent up to now is     2166.6 secs

     total energy              =   -1901.64559490 Ry
     estimated scf accuracy    <       0.04137942 Ry

     total magnetization       =    32.05 Bohr mag/cell
     absolute magnetization    =    48.06 Bohr mag/cell

     End of self-consistent calculation

     convergence NOT achieved after  80 iterations: stopping

     Writing config to output data dir ./out/aiida.save/
 
     init_run     :     29.73s CPU     22.08s WALL (       1 calls)
     electrons    :   2419.41s CPU   2144.15s WALL (       1 calls)

     Called by init_run:
     wfcinit      :     14.22s CPU     18.06s WALL (       1 calls)
                                       18.06s GPU  (       1 calls)
     wfcinit:atom :      0.06s CPU      0.15s WALL (      84 calls)
                                        0.15s GPU  (      84 calls)
     wfcinit:wfcr :      7.12s CPU      7.89s WALL (      84 calls)
                                        7.89s GPU  (      84 calls)
     potinit      :      5.56s CPU      0.48s WALL (       1 calls)
     hinit0       :      7.25s CPU      2.40s WALL (       1 calls)

     Called by electrons:
     c_bands      :   1769.72s CPU   1834.56s WALL (      80 calls)
     sum_band     :    261.82s CPU    271.21s WALL (      80 calls)
     v_of_rho     :     86.07s CPU      9.71s WALL (      81 calls)
     v_h          :     14.63s CPU      1.37s WALL (      81 calls)
     v_xc         :     71.44s CPU      8.34s WALL (      81 calls)
     newd         :    134.43s CPU     12.44s WALL (      81 calls)
                                       12.44s GPU  (      81 calls)
     mix_rho      :    121.65s CPU     11.83s WALL (      80 calls)

     Called by c_bands:
     init_us_2    :     35.05s CPU     45.65s WALL (   13524 calls)
     init_us_2:gp :     34.75s CPU     45.37s WALL (   13524 calls)
     cegterg      :   1442.68s CPU   1516.89s WALL (    6720 calls)

     Called by sum_band:
     sum_band:wei :      0.94s CPU      0.95s WALL (      80 calls)
                                        0.95s GPU  (      80 calls)
     sum_band:loo :    237.59s CPU    246.82s WALL (      80 calls)
                                      246.82s GPU  (      80 calls)
     sum_band:buf :     93.49s CPU     94.17s WALL (    6720 calls)
                                       94.12s GPU  (    6720 calls)
     sum_band:ini :     15.19s CPU     20.30s WALL (    6720 calls)
                                       20.26s GPU  (    6720 calls)
     sum_band:cal :      0.30s CPU     15.28s WALL (    6720 calls)
                                       14.34s GPU  (    6720 calls)
     sum_band:bec :      2.37s CPU      2.50s WALL (    6720 calls)
                                        2.45s GPU  (    6720 calls)
     addusdens    :     14.84s CPU     14.98s WALL (      80 calls)
                                       14.98s GPU  (      80 calls)
     addusd:skk   :      0.07s CPU      0.07s WALL (      80 calls)
                                        0.07s GPU  (      80 calls)

     Called by *egterg:
     cdiaghg      :    462.80s CPU    522.65s WALL (   60619 calls)
                                      522.23s GPU  (   60619 calls)
     cegterg:over :     51.03s CPU     52.43s WALL (   53899 calls)
     cegterg:upda :     49.09s CPU     50.63s WALL (   53899 calls)
     cegterg:last :     47.43s CPU     47.79s WALL (   15499 calls)
     h_psi        :    727.36s CPU    738.67s WALL (   60703 calls)
                                      737.00s GPU  (   60703 calls)
     s_psi        :     13.34s CPU     67.98s WALL (   60703 calls)
                                       64.41s GPU  (   60703 calls)
     g_psi        :      0.39s CPU      4.27s WALL (   53899 calls)
                                        3.93s GPU  (   53899 calls)

     Called by h_psi:
     h_psi:calbec :      2.12s CPU     59.08s WALL (   60703 calls)
                                       58.70s GPU  (   60703 calls)
     vloc_psi     :    593.52s CPU    601.76s WALL (   60703 calls)
                                      601.38s GPU  (   60703 calls)
     add_vuspsi   :     17.81s CPU     69.16s WALL (   60703 calls)
                                       68.77s GPU  (   60703 calls)

     General routines
     calbec       :      1.82s CPU      1.89s WALL (   67423 calls)
     fft          :      4.84s CPU      1.19s WALL (    2023 calls)
                                        0.89s GPU  (    1861 calls)
     ffts         :      0.26s CPU      0.12s WALL (     322 calls)
                                        0.03s GPU  (     160 calls)
     fftw         :      6.98s CPU    499.93s WALL (  361858 calls)
                                      496.37s GPU  (  361858 calls)
     interpolate  :     17.15s CPU      1.50s WALL (     162 calls)
     davcio       :      0.05s CPU      2.68s WALL (     102 calls)
 
     Parallel routines
 
     PWSCF        :  40m52.15s CPU  36m10.15s WALL

 
   This run was terminated on:  17:48:10  22Oct2023            

=------------------------------------------------------------------------------=
   JOB DONE.
=------------------------------------------------------------------------------=
