
     Program PWSCF v.7.2 starts on 23Oct2023 at  0:16:36 

     This program is part of the open-source Quantum ESPRESSO suite
     for quantum simulation of materials; please cite
         "P. Giannozzi et al., J. Phys.:Condens. Matter 21 395502 (2009);
         "P. Giannozzi et al., J. Phys.:Condens. Matter 29 465901 (2017);
         "P. Giannozzi et al., J. Chem. Phys. 152 154105 (2020);
          URL http://www.quantum-espresso.org", 
     in publications or presentations arising from this work. More details at
     http://www.quantum-espresso.org/quote

     Parallel version (MPI & OpenMP), running on      12 processor cores
     Number of MPI processes:                 1
     Threads/MPI process:                    12

     MPI processes distributed on     1 nodes
     59837 MiB available memory on the printing compute node when the environment starts
 
     Reading input from aiida.in

     Current dimensions of program PWSCF are:
     Max number of different atomic species (ntypx) = 10
     Max number of k-points (npk) =  40000
     Max angular momentum in pseudopotentials (lmaxx) =  4
     Message from routine setup:
     using ibrav=0 with symmetry is DISCOURAGED, use correct ibrav instead
 
     Subspace diagonalization in iterative solution of the eigenvalue problem:
     a serial algorithm will be used

 
     G-vector sticks info
     --------------------
     sticks:   dense  smooth     PW     G-vecs:    dense   smooth      PW
     Sum        5791    2897    807               415201   146777   21459
 
     Using Slab Decomposition
 


     bravais-lattice index     =            0
     lattice parameter (alat)  =      13.0580  a.u.
     unit-cell volume          =    3073.6526 (a.u.)^3
     number of atoms/cell      =           14
     number of atomic types    =            3
     number of electrons       =       142.00
     number of Kohn-Sham states=           85
     kinetic-energy cutoff     =      50.0000  Ry
     charge density cutoff     =     400.0000  Ry
     scf convergence threshold =      2.8E-09
     mixing beta               =       0.4000
     number of iterations used =            8  plain     mixing
     Exchange-correlation= SLA  PW   PSX  PSC
                           (   1   4  10   8   0   0   0)

     GPU acceleration is ACTIVE.


     GPU used by master process:

        Device Number: 0
        Device name: Tesla P100-PCIE-16GB
        Compute capability : 60
        Ratio of single to double precision performance  : 2
        Memory Clock Rate (KHz): 715000
        Memory Bus Width (bits): 4096
        Peak Memory Bandwidth (GB/s): 732.16

     celldm(1)=  13.058008  celldm(2)=   0.000000  celldm(3)=   0.000000
     celldm(4)=   0.000000  celldm(5)=   0.000000  celldm(6)=   0.000000

     crystal axes: (cart. coord. in units of alat)
               a(1) = (   1.000000   0.000000   0.000000 )  
               a(2) = (   0.000000   1.067438   0.000000 )  
               a(3) = (  -0.475822   0.000000   1.293246 )  

     reciprocal axes: (cart. coord. in units 2 pi/alat)
               b(1) = (  1.000000 -0.000000  0.367928 )  
               b(2) = (  0.000000  0.936822 -0.000000 )  
               b(3) = (  0.000000  0.000000  0.773248 )  


     PseudoPot. # 1 for Br read from file:
     ./pseudo/br_pbesol_v1.4.uspp.F.UPF
     MD5 check sum: 7bf6084e715f6bfd1944787c04c43e72
     Pseudo is Ultrasoft + core correction, Zval =  7.0
     Generated by new atomic code, or converted to UPF format
     Using radial grid of  879 points,  6 beta functions with: 
                l(1) =   0
                l(2) =   0
                l(3) =   1
                l(4) =   1
                l(5) =   2
                l(6) =   2
     Q(r) pseudized with  8 coefficients,  rinner =    1.200   1.200   1.200
                                                       1.200   1.200

     PseudoPot. # 2 for Co read from file:
     ./pseudo/co_pbesol_v1.2.uspp.F.UPF
     MD5 check sum: 3b4cd4e7cc7df4da9fdede0fd33e2193
     Pseudo is Ultrasoft + core correction, Zval = 17.0
     Generated by new atomic code, or converted to UPF format
     Using radial grid of  863 points,  6 beta functions with: 
                l(1) =   0
                l(2) =   0
                l(3) =   1
                l(4) =   1
                l(5) =   2
                l(6) =   2
     Q(r) pseudized with  8 coefficients,  rinner =    1.200   1.200   1.200
                                                       1.200   1.200

     PseudoPot. # 3 for Tl read from file:
     ./pseudo/tl_pbesol_v1.2.uspp.F.UPF
     MD5 check sum: ce331abb17083e2469b5604a64700343
     Pseudo is Ultrasoft + core correction, Zval = 13.0
     Generated by new atomic code, or converted to UPF format
     Using radial grid of  899 points,  6 beta functions with: 
                l(1) =   0
                l(2) =   0
                l(3) =   1
                l(4) =   1
                l(5) =   2
                l(6) =   2
     Q(r) pseudized with  6 coefficients,  rinner =    1.100   1.100   1.100
                                                       1.100   1.100

     atomic species   valence    mass     pseudopotential
        Br             7.00    79.90400     Br( 1.00)
        Co            17.00    58.93319     Co( 1.00)
        Tl            13.00   204.38330     Tl( 1.00)

     Starting magnetic structure 
     atomic species   magnetization
        Br           0.100
        Co           0.294
        Tl           0.100

      4 Sym. Ops., with inversion, found ( 2 have fractional translation)


                                    s                        frac. trans.

      isym =  1     identity                                     

 cryst.   s( 1) = (     1          0          0      )
                  (     0          1          0      )
                  (     0          0          1      )

 cart.    s( 1) = (  1.0000000  0.0000000 -0.0000000 )
                  (  0.0000000  1.0000000  0.0000000 )
                  (  0.0000000  0.0000000  1.0000000 )


      isym =  2     180 deg rotation - cart. axis [0,1,0]        

 cryst.   s( 2) = (    -1          0          0      )    f =(  0.0000000 )
                  (     0          1          0      )       (  0.5000000 )
                  (     0          0         -1      )       (  0.0000000 )

 cart.    s( 2) = ( -1.0000000  0.0000000  0.0000000 )    f =(  0.0000000 )
                  (  0.0000000  1.0000000  0.0000000 )       (  0.5337192 )
                  (  0.0000000  0.0000000 -1.0000000 )       (  0.0000000 )


      isym =  3     inversion                                    

 cryst.   s( 3) = (    -1          0          0      )
                  (     0         -1          0      )
                  (     0          0         -1      )

 cart.    s( 3) = ( -1.0000000  0.0000000  0.0000000 )
                  (  0.0000000 -1.0000000  0.0000000 )
                  (  0.0000000  0.0000000 -1.0000000 )


      isym =  4     inv. 180 deg rotation - cart. axis [0,1,0]   

 cryst.   s( 4) = (     1          0          0      )    f =(  0.0000000 )
                  (     0         -1          0      )       (  0.5000000 )
                  (     0          0          1      )       (  0.0000000 )

 cart.    s( 4) = (  1.0000000  0.0000000 -0.0000000 )    f =(  0.0000000 )
                  (  0.0000000 -1.0000000  0.0000000 )       (  0.5337192 )
                  (  0.0000000  0.0000000  1.0000000 )       (  0.0000000 )


   Cartesian axes

     site n.     atom                  positions (alat units)
         1           Tl  tau(   1) = (   0.5678415   0.8005789   0.5798916  )
         2           Tl  tau(   2) = (  -0.0436634   0.2668596   0.7133545  )
         3           Tl  tau(   3) = (   0.2879816   0.8005789   1.2051760  )
         4           Tl  tau(   4) = (   0.2361965   0.2668596   0.0880701  )
         5           Co  tau(   5) = (   0.0827438   0.8005789   0.3874565  )
         6           Co  tau(   6) = (   0.4414343   0.2668596   0.9057896  )
         7           Br  tau(   7) = (   0.6322850   1.0644497   0.9833843  )
         8           Br  tau(   8) = (   0.6322850   0.5367081   0.9833843  )
         9           Br  tau(   9) = (  -0.1081069   0.5307304   0.3098618  )
        10           Br  tau(  10) = (  -0.1081069   0.0029888   0.3098618  )
        11           Br  tau(  11) = (   0.3596327   0.8005789   0.1648889  )
        12           Br  tau(  12) = (   0.1645454   0.2668596   1.1283572  )
        13           Br  tau(  13) = (   0.1259403   0.8005789   0.7429699  )
        14           Br  tau(  14) = (   0.3982378   0.2668596   0.5502762  )

   Crystallographic axes

     site n.     atom                  positions (cryst. coord.)
         1           Tl  tau(   1) = (  0.7812000  0.7500000  0.4484000  )
         2           Tl  tau(   2) = (  0.2188000  0.2500000  0.5516000  )
         3           Tl  tau(   3) = (  0.7314000  0.7500000  0.9319000  )
         4           Tl  tau(   4) = (  0.2686000  0.2500000  0.0681000  )
         5           Co  tau(   5) = (  0.2253000  0.7500000  0.2996000  )
         6           Co  tau(   6) = (  0.7747000  0.2500000  0.7004000  )
         7           Br  tau(   7) = (  0.9941000  0.9972000  0.7604000  )
         8           Br  tau(   8) = (  0.9941000  0.5028000  0.7604000  )
         9           Br  tau(   9) = (  0.0059000  0.4972000  0.2396000  )
        10           Br  tau(  10) = (  0.0059000  0.0028000  0.2396000  )
        11           Br  tau(  11) = (  0.4203000  0.7500000  0.1275000  )
        12           Br  tau(  12) = (  0.5797000  0.2500000  0.8725000  )
        13           Br  tau(  13) = (  0.3993000  0.7500000  0.5745000  )
        14           Br  tau(  14) = (  0.6007000  0.2500000  0.4255000  )

     number of k points=    72  Marzari-Vanderbilt smearing, width (Ry)=  0.0100
                       cart. coord. in units 2pi/alat
        k(    1) = (   0.0000000   0.0000000   0.0000000), wk =   0.0047619
        k(    2) = (   0.0000000   0.0000000   0.1546496), wk =   0.0095238
        k(    3) = (   0.0000000   0.0000000   0.3092992), wk =   0.0095238
        k(    4) = (   0.0000000   0.1561370   0.0000000), wk =   0.0095238
        k(    5) = (   0.0000000   0.1561370   0.1546496), wk =   0.0190476
        k(    6) = (   0.0000000   0.1561370   0.3092992), wk =   0.0190476
        k(    7) = (   0.0000000   0.3122740   0.0000000), wk =   0.0095238
        k(    8) = (   0.0000000   0.3122740   0.1546496), wk =   0.0190476
        k(    9) = (   0.0000000   0.3122740   0.3092992), wk =   0.0190476
        k(   10) = (   0.0000000  -0.4684111   0.0000000), wk =   0.0047619
        k(   11) = (   0.0000000  -0.4684111   0.1546496), wk =   0.0095238
        k(   12) = (   0.0000000  -0.4684111   0.3092992), wk =   0.0095238
        k(   13) = (   0.1428571   0.0000000   0.0525612), wk =   0.0095238
        k(   14) = (   0.1428571   0.0000000   0.2072108), wk =   0.0095238
        k(   15) = (   0.1428571   0.0000000   0.3618604), wk =   0.0095238
        k(   16) = (   0.1428571   0.0000000  -0.2567380), wk =   0.0095238
        k(   17) = (   0.1428571   0.0000000  -0.1020884), wk =   0.0095238
        k(   18) = (   0.1428571   0.1561370   0.0525612), wk =   0.0190476
        k(   19) = (   0.1428571   0.1561370   0.2072108), wk =   0.0190476
        k(   20) = (   0.1428571   0.1561370   0.3618604), wk =   0.0190476
        k(   21) = (   0.1428571   0.1561370  -0.2567380), wk =   0.0190476
        k(   22) = (   0.1428571   0.1561370  -0.1020884), wk =   0.0190476
        k(   23) = (   0.1428571   0.3122740   0.0525612), wk =   0.0190476
        k(   24) = (   0.1428571   0.3122740   0.2072108), wk =   0.0190476
        k(   25) = (   0.1428571   0.3122740   0.3618604), wk =   0.0190476
        k(   26) = (   0.1428571   0.3122740  -0.2567380), wk =   0.0190476
        k(   27) = (   0.1428571   0.3122740  -0.1020884), wk =   0.0190476
        k(   28) = (   0.1428571  -0.4684111   0.0525612), wk =   0.0095238
        k(   29) = (   0.1428571  -0.4684111   0.2072108), wk =   0.0095238
        k(   30) = (   0.1428571  -0.4684111   0.3618604), wk =   0.0095238
        k(   31) = (   0.1428571  -0.4684111  -0.2567380), wk =   0.0095238
        k(   32) = (   0.1428571  -0.4684111  -0.1020884), wk =   0.0095238
        k(   33) = (   0.2857143   0.0000000   0.1051224), wk =   0.0095238
        k(   34) = (   0.2857143   0.0000000   0.2597720), wk =   0.0095238
        k(   35) = (   0.2857143   0.0000000   0.4144216), wk =   0.0095238
        k(   36) = (   0.2857143   0.0000000  -0.2041768), wk =   0.0095238
        k(   37) = (   0.2857143   0.0000000  -0.0495272), wk =   0.0095238
        k(   38) = (   0.2857143   0.1561370   0.1051224), wk =   0.0190476
        k(   39) = (   0.2857143   0.1561370   0.2597720), wk =   0.0190476
        k(   40) = (   0.2857143   0.1561370   0.4144216), wk =   0.0190476
        k(   41) = (   0.2857143   0.1561370  -0.2041768), wk =   0.0190476
        k(   42) = (   0.2857143   0.1561370  -0.0495272), wk =   0.0190476
        k(   43) = (   0.2857143   0.3122740   0.1051224), wk =   0.0190476
        k(   44) = (   0.2857143   0.3122740   0.2597720), wk =   0.0190476
        k(   45) = (   0.2857143   0.3122740   0.4144216), wk =   0.0190476
        k(   46) = (   0.2857143   0.3122740  -0.2041768), wk =   0.0190476
        k(   47) = (   0.2857143   0.3122740  -0.0495272), wk =   0.0190476
        k(   48) = (   0.2857143  -0.4684111   0.1051224), wk =   0.0095238
        k(   49) = (   0.2857143  -0.4684111   0.2597720), wk =   0.0095238
        k(   50) = (   0.2857143  -0.4684111   0.4144216), wk =   0.0095238
        k(   51) = (   0.2857143  -0.4684111  -0.2041768), wk =   0.0095238
        k(   52) = (   0.2857143  -0.4684111  -0.0495272), wk =   0.0095238
        k(   53) = (   0.4285714   0.0000000   0.1576836), wk =   0.0095238
        k(   54) = (   0.4285714   0.0000000   0.3123332), wk =   0.0095238
        k(   55) = (   0.4285714   0.0000000   0.4669828), wk =   0.0095238
        k(   56) = (   0.4285714   0.0000000  -0.1516156), wk =   0.0095238
        k(   57) = (   0.4285714   0.0000000   0.0030340), wk =   0.0095238
        k(   58) = (   0.4285714   0.1561370   0.1576836), wk =   0.0190476
        k(   59) = (   0.4285714   0.1561370   0.3123332), wk =   0.0190476
        k(   60) = (   0.4285714   0.1561370   0.4669828), wk =   0.0190476
        k(   61) = (   0.4285714   0.1561370  -0.1516156), wk =   0.0190476
        k(   62) = (   0.4285714   0.1561370   0.0030340), wk =   0.0190476
        k(   63) = (   0.4285714   0.3122740   0.1576836), wk =   0.0190476
        k(   64) = (   0.4285714   0.3122740   0.3123332), wk =   0.0190476
        k(   65) = (   0.4285714   0.3122740   0.4669828), wk =   0.0190476
        k(   66) = (   0.4285714   0.3122740  -0.1516156), wk =   0.0190476
        k(   67) = (   0.4285714   0.3122740   0.0030340), wk =   0.0190476
        k(   68) = (   0.4285714  -0.4684111   0.1576836), wk =   0.0095238
        k(   69) = (   0.4285714  -0.4684111   0.3123332), wk =   0.0095238
        k(   70) = (   0.4285714  -0.4684111   0.4669828), wk =   0.0095238
        k(   71) = (   0.4285714  -0.4684111  -0.1516156), wk =   0.0095238
        k(   72) = (   0.4285714  -0.4684111   0.0030340), wk =   0.0095238

                       cryst. coord.
        k(    1) = (   0.0000000   0.0000000   0.0000000), wk =   0.0047619
        k(    2) = (   0.0000000   0.0000000   0.2000000), wk =   0.0095238
        k(    3) = (   0.0000000   0.0000000   0.4000000), wk =   0.0095238
        k(    4) = (   0.0000000   0.1666667   0.0000000), wk =   0.0095238
        k(    5) = (   0.0000000   0.1666667   0.2000000), wk =   0.0190476
        k(    6) = (   0.0000000   0.1666667   0.4000000), wk =   0.0190476
        k(    7) = (   0.0000000   0.3333333   0.0000000), wk =   0.0095238
        k(    8) = (   0.0000000   0.3333333   0.2000000), wk =   0.0190476
        k(    9) = (   0.0000000   0.3333333   0.4000000), wk =   0.0190476
        k(   10) = (   0.0000000  -0.5000000   0.0000000), wk =   0.0047619
        k(   11) = (   0.0000000  -0.5000000   0.2000000), wk =   0.0095238
        k(   12) = (   0.0000000  -0.5000000   0.4000000), wk =   0.0095238
        k(   13) = (   0.1428571   0.0000000   0.0000000), wk =   0.0095238
        k(   14) = (   0.1428571   0.0000000   0.2000000), wk =   0.0095238
        k(   15) = (   0.1428571   0.0000000   0.4000000), wk =   0.0095238
        k(   16) = (   0.1428571   0.0000000  -0.4000000), wk =   0.0095238
        k(   17) = (   0.1428571   0.0000000  -0.2000000), wk =   0.0095238
        k(   18) = (   0.1428571   0.1666667   0.0000000), wk =   0.0190476
        k(   19) = (   0.1428571   0.1666667   0.2000000), wk =   0.0190476
        k(   20) = (   0.1428571   0.1666667   0.4000000), wk =   0.0190476
        k(   21) = (   0.1428571   0.1666667  -0.4000000), wk =   0.0190476
        k(   22) = (   0.1428571   0.1666667  -0.2000000), wk =   0.0190476
        k(   23) = (   0.1428571   0.3333333   0.0000000), wk =   0.0190476
        k(   24) = (   0.1428571   0.3333333   0.2000000), wk =   0.0190476
        k(   25) = (   0.1428571   0.3333333   0.4000000), wk =   0.0190476
        k(   26) = (   0.1428571   0.3333333  -0.4000000), wk =   0.0190476
        k(   27) = (   0.1428571   0.3333333  -0.2000000), wk =   0.0190476
        k(   28) = (   0.1428571  -0.5000000   0.0000000), wk =   0.0095238
        k(   29) = (   0.1428571  -0.5000000   0.2000000), wk =   0.0095238
        k(   30) = (   0.1428571  -0.5000000   0.4000000), wk =   0.0095238
        k(   31) = (   0.1428571  -0.5000000  -0.4000000), wk =   0.0095238
        k(   32) = (   0.1428571  -0.5000000  -0.2000000), wk =   0.0095238
        k(   33) = (   0.2857143   0.0000000   0.0000000), wk =   0.0095238
        k(   34) = (   0.2857143   0.0000000   0.2000000), wk =   0.0095238
        k(   35) = (   0.2857143   0.0000000   0.4000000), wk =   0.0095238
        k(   36) = (   0.2857143   0.0000000  -0.4000000), wk =   0.0095238
        k(   37) = (   0.2857143   0.0000000  -0.2000000), wk =   0.0095238
        k(   38) = (   0.2857143   0.1666667   0.0000000), wk =   0.0190476
        k(   39) = (   0.2857143   0.1666667   0.2000000), wk =   0.0190476
        k(   40) = (   0.2857143   0.1666667   0.4000000), wk =   0.0190476
        k(   41) = (   0.2857143   0.1666667  -0.4000000), wk =   0.0190476
        k(   42) = (   0.2857143   0.1666667  -0.2000000), wk =   0.0190476
        k(   43) = (   0.2857143   0.3333333   0.0000000), wk =   0.0190476
        k(   44) = (   0.2857143   0.3333333   0.2000000), wk =   0.0190476
        k(   45) = (   0.2857143   0.3333333   0.4000000), wk =   0.0190476
        k(   46) = (   0.2857143   0.3333333  -0.4000000), wk =   0.0190476
        k(   47) = (   0.2857143   0.3333333  -0.2000000), wk =   0.0190476
        k(   48) = (   0.2857143  -0.5000000   0.0000000), wk =   0.0095238
        k(   49) = (   0.2857143  -0.5000000   0.2000000), wk =   0.0095238
        k(   50) = (   0.2857143  -0.5000000   0.4000000), wk =   0.0095238
        k(   51) = (   0.2857143  -0.5000000  -0.4000000), wk =   0.0095238
        k(   52) = (   0.2857143  -0.5000000  -0.2000000), wk =   0.0095238
        k(   53) = (   0.4285714   0.0000000  -0.0000000), wk =   0.0095238
        k(   54) = (   0.4285714   0.0000000   0.2000000), wk =   0.0095238
        k(   55) = (   0.4285714   0.0000000   0.4000000), wk =   0.0095238
        k(   56) = (   0.4285714   0.0000000  -0.4000000), wk =   0.0095238
        k(   57) = (   0.4285714   0.0000000  -0.2000000), wk =   0.0095238
        k(   58) = (   0.4285714   0.1666667  -0.0000000), wk =   0.0190476
        k(   59) = (   0.4285714   0.1666667   0.2000000), wk =   0.0190476
        k(   60) = (   0.4285714   0.1666667   0.4000000), wk =   0.0190476
        k(   61) = (   0.4285714   0.1666667  -0.4000000), wk =   0.0190476
        k(   62) = (   0.4285714   0.1666667  -0.2000000), wk =   0.0190476
        k(   63) = (   0.4285714   0.3333333  -0.0000000), wk =   0.0190476
        k(   64) = (   0.4285714   0.3333333   0.2000000), wk =   0.0190476
        k(   65) = (   0.4285714   0.3333333   0.4000000), wk =   0.0190476
        k(   66) = (   0.4285714   0.3333333  -0.4000000), wk =   0.0190476
        k(   67) = (   0.4285714   0.3333333  -0.2000000), wk =   0.0190476
        k(   68) = (   0.4285714  -0.5000000  -0.0000000), wk =   0.0095238
        k(   69) = (   0.4285714  -0.5000000   0.2000000), wk =   0.0095238
        k(   70) = (   0.4285714  -0.5000000   0.4000000), wk =   0.0095238
        k(   71) = (   0.4285714  -0.5000000  -0.4000000), wk =   0.0095238
        k(   72) = (   0.4285714  -0.5000000  -0.2000000), wk =   0.0095238

     Dense  grid:   415201 G-vectors     FFT dimensions: (  90,  90, 120)

     Smooth grid:   146777 G-vectors     FFT dimensions: (  60,  64,  81)

     Dynamical RAM for                 wfc:      23.80 MB

     Dynamical RAM for     wfc (w. buffer):    3451.17 MB

     Dynamical RAM for           str. fact:      19.01 MB

     Dynamical RAM for           local pot:       0.00 MB

     Dynamical RAM for          nlocal pot:      70.56 MB

     Dynamical RAM for                qrad:       4.82 MB

     Dynamical RAM for          rho,v,vnew:      82.51 MB

     Dynamical RAM for               rhoin:      27.50 MB

     Dynamical RAM for            rho*nmix:     202.73 MB

     Dynamical RAM for           G-vectors:      24.88 MB

     Dynamical RAM for          h,s,v(r/c):       1.32 MB

     Dynamical RAM for          <psi|beta>:       0.33 MB

     Dynamical RAM for                 psi:      47.60 MB

     Dynamical RAM for                hpsi:      47.60 MB

     Dynamical RAM for                spsi:      47.60 MB

     Dynamical RAM for      wfcinit/wfcrot:      52.85 MB

     Dynamical RAM for           addusdens:    1235.42 MB

     Dynamical RAM for          addusforce:    1324.17 MB

     Dynamical RAM for         addusstress:    1282.93 MB

     Estimated static dynamical RAM per process >       3.66 GB

     Estimated max dynamical RAM per process >       5.15 GB

     Check: negative core charge=   -0.000003
     Generating pointlists ...
     new r_m :   0.1400 (alat units)  1.8287 (a.u.) for type    1
     new r_m :   0.1400 (alat units)  1.8287 (a.u.) for type    2
     new r_m :   0.1915 (alat units)  2.5009 (a.u.) for type    3

     Initial potential from superposition of free atoms

     starting charge     139.9822, renormalised to     142.0000

     negative rho (up, down):  1.113E-01 9.104E-02
     Starting wfcs are   94 randomized atomic wfcs

     total cpu time spent up to now is       17.4 secs

     per-process dynamical memory:   214.4 Mb

     Self-consistent Calculation
[tb_dev] Currently allocated     7.71E+00 Mbytes, locked:    0 /  10
[tb_pin] Currently allocated     0.00E+00 Mbytes, locked:    0 /   0

     iteration #  1     ecut=    50.00 Ry     beta= 0.40
     Davidson diagonalization with overlap

---- Real-time Memory Report at c_bands before calling an iterative solver
          4543 MiB given to the printing process from OS
           238 MiB allocation reported by mallinfo(arena+hblkhd)
         54770 MiB available memory on the node where the printing process lives
     GPU memory used/free/total (MiB): 2278 / 14002 / 16280
------------------
     ethr =  1.00E-02,  avg # of iterations =  2.0

     Threshold (ethr) on eigenvalues was too large:
     Diagonalizing with lowered threshold

     Davidson diagonalization with overlap

---- Real-time Memory Report at c_bands before calling an iterative solver
          4568 MiB given to the printing process from OS
           286 MiB allocation reported by mallinfo(arena+hblkhd)
         54748 MiB available memory on the node where the printing process lives
     GPU memory used/free/total (MiB): 3928 / 12352 / 16280
------------------
     ethr =  9.12E-04,  avg # of iterations =  3.0

     negative rho (up, down):  1.060E-01 9.374E-02

     total cpu time spent up to now is       52.9 secs

     total energy              =   -1499.75403134 Ry
     estimated scf accuracy    <       1.35942742 Ry

     total magnetization       =     6.00 Bohr mag/cell
     absolute magnetization    =     6.34 Bohr mag/cell
[tb_dev] Currently allocated     7.71E+00 Mbytes, locked:    0 /   8
[tb_pin] Currently allocated     0.00E+00 Mbytes, locked:    0 /   0

     iteration #  2     ecut=    50.00 Ry     beta= 0.40
     Davidson diagonalization with overlap

---- Real-time Memory Report at c_bands before calling an iterative solver
          4673 MiB given to the printing process from OS
           328 MiB allocation reported by mallinfo(arena+hblkhd)
         54671 MiB available memory on the node where the printing process lives
     GPU memory used/free/total (MiB): 4104 / 12176 / 16280
------------------
     ethr =  9.57E-04,  avg # of iterations =  2.0
     Minimization algorithm failed to find Fermi energy: reverting to bisection
     Possible cause: smearing is larger than the electronic band-gap.

     negative rho (up, down):  1.025E-01 9.655E-02

     total cpu time spent up to now is       70.3 secs

     total energy              =   -1499.88807096 Ry
     estimated scf accuracy    <       0.36650573 Ry

     total magnetization       =     6.00 Bohr mag/cell
     absolute magnetization    =     6.20 Bohr mag/cell
[tb_dev] Currently allocated     7.71E+00 Mbytes, locked:    0 /   8
[tb_pin] Currently allocated     0.00E+00 Mbytes, locked:    0 /   0

     iteration #  3     ecut=    50.00 Ry     beta= 0.40
     Davidson diagonalization with overlap

---- Real-time Memory Report at c_bands before calling an iterative solver
          4687 MiB given to the printing process from OS
           342 MiB allocation reported by mallinfo(arena+hblkhd)
         54663 MiB available memory on the node where the printing process lives
     GPU memory used/free/total (MiB): 4176 / 12104 / 16280
------------------
     ethr =  2.58E-04,  avg # of iterations =  7.6
     Minimization algorithm failed to find Fermi energy: reverting to bisection
     Possible cause: smearing is larger than the electronic band-gap.

     negative rho (up, down):  1.014E-01 9.754E-02

     total cpu time spent up to now is       98.8 secs

     total energy              =   -1499.96080057 Ry
     estimated scf accuracy    <       0.25557859 Ry

     total magnetization       =     6.00 Bohr mag/cell
     absolute magnetization    =     6.22 Bohr mag/cell
[tb_dev] Currently allocated     7.71E+00 Mbytes, locked:    0 /   8
[tb_pin] Currently allocated     0.00E+00 Mbytes, locked:    0 /   0

     iteration #  4     ecut=    50.00 Ry     beta= 0.40
     Davidson diagonalization with overlap

---- Real-time Memory Report at c_bands before calling an iterative solver
          4697 MiB given to the printing process from OS
           351 MiB allocation reported by mallinfo(arena+hblkhd)
         54656 MiB available memory on the node where the printing process lives
     GPU memory used/free/total (MiB): 4176 / 12104 / 16280
------------------
     ethr =  1.80E-04,  avg # of iterations =  2.0
     Minimization algorithm failed to find Fermi energy: reverting to bisection
     Possible cause: smearing is larger than the electronic band-gap.

     negative rho (up, down):  1.003E-01 9.856E-02

     total cpu time spent up to now is      116.9 secs

     total energy              =   -1500.01116035 Ry
     estimated scf accuracy    <       0.04984439 Ry

     total magnetization       =     6.00 Bohr mag/cell
     absolute magnetization    =     6.14 Bohr mag/cell
[tb_dev] Currently allocated     7.71E+00 Mbytes, locked:    0 /   8
[tb_pin] Currently allocated     0.00E+00 Mbytes, locked:    0 /   0

     iteration #  5     ecut=    50.00 Ry     beta= 0.40
     Davidson diagonalization with overlap

---- Real-time Memory Report at c_bands before calling an iterative solver
          4706 MiB given to the printing process from OS
           360 MiB allocation reported by mallinfo(arena+hblkhd)
         54647 MiB available memory on the node where the printing process lives
     GPU memory used/free/total (MiB): 4176 / 12104 / 16280
------------------
     c_bands:  1 eigenvalues not converged
     ethr =  3.51E-05,  avg # of iterations =  6.5
     Minimization algorithm failed to find Fermi energy: reverting to bisection
     Possible cause: smearing is larger than the electronic band-gap.

     negative rho (up, down):  9.906E-02 9.908E-02

     total cpu time spent up to now is      144.0 secs

     total energy              =   -1500.02897755 Ry
     estimated scf accuracy    <       0.00949447 Ry

     total magnetization       =     6.00 Bohr mag/cell
     absolute magnetization    =     6.11 Bohr mag/cell
[tb_dev] Currently allocated     7.71E+00 Mbytes, locked:    0 /   8
[tb_pin] Currently allocated     0.00E+00 Mbytes, locked:    0 /   0

     iteration #  6     ecut=    50.00 Ry     beta= 0.40
     Davidson diagonalization with overlap

---- Real-time Memory Report at c_bands before calling an iterative solver
          4710 MiB given to the printing process from OS
           364 MiB allocation reported by mallinfo(arena+hblkhd)
         54645 MiB available memory on the node where the printing process lives
     GPU memory used/free/total (MiB): 4176 / 12104 / 16280
------------------
     c_bands:  1 eigenvalues not converged
     c_bands:  1 eigenvalues not converged
     c_bands:  2 eigenvalues not converged
     c_bands:  1 eigenvalues not converged
     c_bands:  1 eigenvalues not converged
     c_bands:  1 eigenvalues not converged
     c_bands:  1 eigenvalues not converged
     c_bands:  1 eigenvalues not converged
     c_bands:  1 eigenvalues not converged
     c_bands:  1 eigenvalues not converged
     c_bands:  1 eigenvalues not converged
     c_bands:  1 eigenvalues not converged
     c_bands:  1 eigenvalues not converged
     c_bands:  1 eigenvalues not converged
     c_bands:  1 eigenvalues not converged
     c_bands:  1 eigenvalues not converged
     c_bands:  1 eigenvalues not converged
     c_bands:  1 eigenvalues not converged
     c_bands:  1 eigenvalues not converged
     c_bands:  1 eigenvalues not converged
     c_bands:  1 eigenvalues not converged
     c_bands:  1 eigenvalues not converged
     c_bands:  1 eigenvalues not converged
     c_bands:  1 eigenvalues not converged
     c_bands:  1 eigenvalues not converged
     c_bands:  1 eigenvalues not converged
     c_bands:  1 eigenvalues not converged
     c_bands:  1 eigenvalues not converged
     c_bands:  1 eigenvalues not converged
     c_bands:  1 eigenvalues not converged
     c_bands:  2 eigenvalues not converged
     c_bands:  1 eigenvalues not converged
     c_bands:  1 eigenvalues not converged
     ethr =  6.69E-06,  avg # of iterations = 13.7
     Minimization algorithm failed to find Fermi energy: reverting to bisection
     Possible cause: smearing is larger than the electronic band-gap.

     negative rho (up, down):  9.872E-02 9.885E-02

     total cpu time spent up to now is      183.0 secs

     total energy              =   -1500.03160642 Ry
     estimated scf accuracy    <       0.00117621 Ry

     total magnetization       =     6.00 Bohr mag/cell
     absolute magnetization    =     6.09 Bohr mag/cell
[tb_dev] Currently allocated     7.71E+00 Mbytes, locked:    0 /   8
[tb_pin] Currently allocated     0.00E+00 Mbytes, locked:    0 /   0

     iteration #  7     ecut=    50.00 Ry     beta= 0.40
     Davidson diagonalization with overlap

---- Real-time Memory Report at c_bands before calling an iterative solver
          4724 MiB given to the printing process from OS
           378 MiB allocation reported by mallinfo(arena+hblkhd)
         54633 MiB available memory on the node where the printing process lives
     GPU memory used/free/total (MiB): 4176 / 12104 / 16280
------------------
     c_bands:  2 eigenvalues not converged
     c_bands:  1 eigenvalues not converged
     c_bands:  1 eigenvalues not converged
     c_bands:  1 eigenvalues not converged
     c_bands:  2 eigenvalues not converged
     c_bands:  2 eigenvalues not converged
     c_bands:  1 eigenvalues not converged
     c_bands:  1 eigenvalues not converged
     c_bands:  1 eigenvalues not converged
     c_bands:  2 eigenvalues not converged
     c_bands:  1 eigenvalues not converged
     c_bands:  2 eigenvalues not converged
     c_bands:  1 eigenvalues not converged
     c_bands:  1 eigenvalues not converged
     c_bands:  1 eigenvalues not converged
     c_bands:  1 eigenvalues not converged
     c_bands:  1 eigenvalues not converged
     ethr =  8.28E-07,  avg # of iterations =  9.8

     negative rho (up, down):  9.869E-02 9.881E-02

     total cpu time spent up to now is      218.3 secs

     WARNING: integrated charge=   142.00169025, expected=   142.00000000

     total energy              =   -1500.03133677 Ry
     estimated scf accuracy    <       0.00114609 Ry

     total magnetization       =     5.99 Bohr mag/cell
     absolute magnetization    =     6.06 Bohr mag/cell
[tb_dev] Currently allocated     7.71E+00 Mbytes, locked:    0 /   8
[tb_pin] Currently allocated     0.00E+00 Mbytes, locked:    0 /   0

     iteration #  8     ecut=    50.00 Ry     beta= 0.40
     Davidson diagonalization with overlap

---- Real-time Memory Report at c_bands before calling an iterative solver
          4734 MiB given to the printing process from OS
           387 MiB allocation reported by mallinfo(arena+hblkhd)
         54623 MiB available memory on the node where the printing process lives
     GPU memory used/free/total (MiB): 4176 / 12104 / 16280
------------------
     c_bands:  1 eigenvalues not converged
     ethr =  8.07E-07,  avg # of iterations =  2.5

     negative rho (up, down):  9.836E-02 9.853E-02

     total cpu time spent up to now is      236.2 secs

     WARNING: integrated charge=   142.01001001, expected=   142.00000000

     total energy              =   -1500.03119398 Ry
     estimated scf accuracy    <       0.00041901 Ry

     total magnetization       =     5.99 Bohr mag/cell
     absolute magnetization    =     6.06 Bohr mag/cell
[tb_dev] Currently allocated     7.71E+00 Mbytes, locked:    0 /   8
[tb_pin] Currently allocated     0.00E+00 Mbytes, locked:    0 /   0

     iteration #  9     ecut=    50.00 Ry     beta= 0.40
     Davidson diagonalization with overlap

---- Real-time Memory Report at c_bands before calling an iterative solver
          4747 MiB given to the printing process from OS
           400 MiB allocation reported by mallinfo(arena+hblkhd)
         54610 MiB available memory on the node where the printing process lives
     GPU memory used/free/total (MiB): 4176 / 12104 / 16280
------------------
     ethr =  2.95E-07,  avg # of iterations =  4.1
     Minimization algorithm failed to find Fermi energy: reverting to bisection
     Possible cause: smearing is larger than the electronic band-gap.

     negative rho (up, down):  9.846E-02 9.860E-02

     total cpu time spent up to now is      259.0 secs

     WARNING: integrated charge=   142.00722869, expected=   142.00000000

     total energy              =   -1500.03255515 Ry
     estimated scf accuracy    <       0.00067167 Ry

     total magnetization       =     6.00 Bohr mag/cell
     absolute magnetization    =     6.07 Bohr mag/cell
[tb_dev] Currently allocated     7.71E+00 Mbytes, locked:    0 /   8
[tb_pin] Currently allocated     0.00E+00 Mbytes, locked:    0 /   0

     iteration # 10     ecut=    50.00 Ry     beta= 0.40
     Davidson diagonalization with overlap

---- Real-time Memory Report at c_bands before calling an iterative solver
          4752 MiB given to the printing process from OS
           405 MiB allocation reported by mallinfo(arena+hblkhd)
         54605 MiB available memory on the node where the printing process lives
     GPU memory used/free/total (MiB): 4176 / 12104 / 16280
------------------
     ethr =  2.95E-07,  avg # of iterations =  2.0

     negative rho (up, down):  9.846E-02 9.859E-02

     total cpu time spent up to now is      276.0 secs

     WARNING: integrated charge=   142.00743377, expected=   142.00000000

     total energy              =   -1500.03119763 Ry
     estimated scf accuracy    <       0.00007158 Ry

     total magnetization       =     5.99 Bohr mag/cell
     absolute magnetization    =     6.06 Bohr mag/cell
[tb_dev] Currently allocated     7.71E+00 Mbytes, locked:    0 /   8
[tb_pin] Currently allocated     0.00E+00 Mbytes, locked:    0 /   0

     iteration # 11     ecut=    50.00 Ry     beta= 0.40
     Davidson diagonalization with overlap

---- Real-time Memory Report at c_bands before calling an iterative solver
          4752 MiB given to the printing process from OS
           405 MiB allocation reported by mallinfo(arena+hblkhd)
         54606 MiB available memory on the node where the printing process lives
     GPU memory used/free/total (MiB): 4176 / 12104 / 16280
------------------
     ethr =  5.04E-08,  avg # of iterations =  5.5

     negative rho (up, down):  9.846E-02 9.859E-02

     total cpu time spent up to now is      300.4 secs

     WARNING: integrated charge=   142.00763531, expected=   142.00000000

     total energy              =   -1500.03119894 Ry
     estimated scf accuracy    <       0.00004914 Ry

     total magnetization       =     5.99 Bohr mag/cell
     absolute magnetization    =     6.06 Bohr mag/cell
[tb_dev] Currently allocated     7.71E+00 Mbytes, locked:    0 /   8
[tb_pin] Currently allocated     0.00E+00 Mbytes, locked:    0 /   0

     iteration # 12     ecut=    50.00 Ry     beta= 0.40
     Davidson diagonalization with overlap

---- Real-time Memory Report at c_bands before calling an iterative solver
          4752 MiB given to the printing process from OS
           405 MiB allocation reported by mallinfo(arena+hblkhd)
         54605 MiB available memory on the node where the printing process lives
     GPU memory used/free/total (MiB): 4176 / 12104 / 16280
------------------
     ethr =  3.46E-08,  avg # of iterations =  2.0

     negative rho (up, down):  9.844E-02 9.858E-02

     total cpu time spent up to now is      319.2 secs

     WARNING: integrated charge=   142.00839786, expected=   142.00000000

     total energy              =   -1500.03120965 Ry
     estimated scf accuracy    <       0.00001708 Ry

     total magnetization       =     5.99 Bohr mag/cell
     absolute magnetization    =     6.06 Bohr mag/cell
[tb_dev] Currently allocated     7.71E+00 Mbytes, locked:    0 /   8
[tb_pin] Currently allocated     0.00E+00 Mbytes, locked:    0 /   0

     iteration # 13     ecut=    50.00 Ry     beta= 0.40
     Davidson diagonalization with overlap

---- Real-time Memory Report at c_bands before calling an iterative solver
          4761 MiB given to the printing process from OS
           405 MiB allocation reported by mallinfo(arena+hblkhd)
         54605 MiB available memory on the node where the printing process lives
     GPU memory used/free/total (MiB): 4176 / 12104 / 16280
------------------
     ethr =  1.20E-08,  avg # of iterations =  5.1
     Minimization algorithm failed to find Fermi energy: reverting to bisection
     Possible cause: smearing is larger than the electronic band-gap.

     negative rho (up, down):  9.844E-02 9.858E-02

     total cpu time spent up to now is      345.8 secs

     WARNING: integrated charge=   142.00818878, expected=   142.00000000

     total energy              =   -1500.03257411 Ry
     estimated scf accuracy    <       0.00024343 Ry

     total magnetization       =     6.00 Bohr mag/cell
     absolute magnetization    =     6.07 Bohr mag/cell
[tb_dev] Currently allocated     7.71E+00 Mbytes, locked:    0 /   8
[tb_pin] Currently allocated     0.00E+00 Mbytes, locked:    0 /   0

     iteration # 14     ecut=    50.00 Ry     beta= 0.40
     Davidson diagonalization with overlap

---- Real-time Memory Report at c_bands before calling an iterative solver
          4761 MiB given to the printing process from OS
           405 MiB allocation reported by mallinfo(arena+hblkhd)
         54605 MiB available memory on the node where the printing process lives
     GPU memory used/free/total (MiB): 4176 / 12104 / 16280
------------------
     ethr =  1.20E-08,  avg # of iterations =  1.7

     negative rho (up, down):  9.842E-02 9.858E-02

     total cpu time spent up to now is      362.2 secs

     WARNING: integrated charge=   142.00847627, expected=   142.00000000

     total energy              =   -1500.03120960 Ry
     estimated scf accuracy    <       0.00001767 Ry

     total magnetization       =     5.99 Bohr mag/cell
     absolute magnetization    =     6.06 Bohr mag/cell
[tb_dev] Currently allocated     7.71E+00 Mbytes, locked:    0 /   8
[tb_pin] Currently allocated     0.00E+00 Mbytes, locked:    0 /   0

     iteration # 15     ecut=    50.00 Ry     beta= 0.40
     Davidson diagonalization with overlap

---- Real-time Memory Report at c_bands before calling an iterative solver
          4761 MiB given to the printing process from OS
           405 MiB allocation reported by mallinfo(arena+hblkhd)
         54604 MiB available memory on the node where the printing process lives
     GPU memory used/free/total (MiB): 4176 / 12104 / 16280
------------------
     ethr =  1.20E-08,  avg # of iterations =  1.8
     Minimization algorithm failed to find Fermi energy: reverting to bisection
     Possible cause: smearing is larger than the electronic band-gap.

     negative rho (up, down):  9.840E-02 9.857E-02

     total cpu time spent up to now is      378.7 secs

     WARNING: integrated charge=   142.00839806, expected=   142.00000000

     total energy              =   -1500.03257218 Ry
     estimated scf accuracy    <       0.00024665 Ry

     total magnetization       =     6.00 Bohr mag/cell
     absolute magnetization    =     6.07 Bohr mag/cell
[tb_dev] Currently allocated     7.71E+00 Mbytes, locked:    0 /   8
[tb_pin] Currently allocated     0.00E+00 Mbytes, locked:    0 /   0

     iteration # 16     ecut=    50.00 Ry     beta= 0.40
     Davidson diagonalization with overlap

---- Real-time Memory Report at c_bands before calling an iterative solver
          4761 MiB given to the printing process from OS
           405 MiB allocation reported by mallinfo(arena+hblkhd)
         54605 MiB available memory on the node where the printing process lives
     GPU memory used/free/total (MiB): 4176 / 12104 / 16280
------------------
     ethr =  1.20E-08,  avg # of iterations =  2.0

     negative rho (up, down):  9.840E-02 9.857E-02

     total cpu time spent up to now is      395.6 secs

     WARNING: integrated charge=   142.00838487, expected=   142.00000000

     total energy              =   -1500.03120628 Ry
     estimated scf accuracy    <       0.00000937 Ry

     total magnetization       =     5.99 Bohr mag/cell
     absolute magnetization    =     6.06 Bohr mag/cell
[tb_dev] Currently allocated     7.71E+00 Mbytes, locked:    0 /   8
[tb_pin] Currently allocated     0.00E+00 Mbytes, locked:    0 /   0

     iteration # 17     ecut=    50.00 Ry     beta= 0.40
     Davidson diagonalization with overlap

---- Real-time Memory Report at c_bands before calling an iterative solver
          4761 MiB given to the printing process from OS
           405 MiB allocation reported by mallinfo(arena+hblkhd)
         54605 MiB available memory on the node where the printing process lives
     GPU memory used/free/total (MiB): 4176 / 12104 / 16280
------------------
     ethr =  6.60E-09,  avg # of iterations =  1.0

     negative rho (up, down):  9.839E-02 9.857E-02

     total cpu time spent up to now is      411.0 secs

     WARNING: integrated charge=   142.00841100, expected=   142.00000000

     total energy              =   -1500.03120626 Ry
     estimated scf accuracy    <       0.00000908 Ry

     total magnetization       =     5.99 Bohr mag/cell
     absolute magnetization    =     6.06 Bohr mag/cell
[tb_dev] Currently allocated     7.71E+00 Mbytes, locked:    0 /   8
[tb_pin] Currently allocated     0.00E+00 Mbytes, locked:    0 /   0

     iteration # 18     ecut=    50.00 Ry     beta= 0.40
     Davidson diagonalization with overlap

---- Real-time Memory Report at c_bands before calling an iterative solver
          4761 MiB given to the printing process from OS
           405 MiB allocation reported by mallinfo(arena+hblkhd)
         54606 MiB available memory on the node where the printing process lives
     GPU memory used/free/total (MiB): 4176 / 12104 / 16280
------------------
     ethr =  6.39E-09,  avg # of iterations =  1.0

     negative rho (up, down):  9.839E-02 9.857E-02

     total cpu time spent up to now is      426.3 secs

     WARNING: integrated charge=   142.00844414, expected=   142.00000000

     total energy              =   -1500.03120414 Ry
     estimated scf accuracy    <       0.00000873 Ry

     total magnetization       =     5.99 Bohr mag/cell
     absolute magnetization    =     6.06 Bohr mag/cell
[tb_dev] Currently allocated     7.71E+00 Mbytes, locked:    0 /   8
[tb_pin] Currently allocated     0.00E+00 Mbytes, locked:    0 /   0

     iteration # 19     ecut=    50.00 Ry     beta= 0.40
     Davidson diagonalization with overlap

---- Real-time Memory Report at c_bands before calling an iterative solver
          4761 MiB given to the printing process from OS
           405 MiB allocation reported by mallinfo(arena+hblkhd)
         54607 MiB available memory on the node where the printing process lives
     GPU memory used/free/total (MiB): 4176 / 12104 / 16280
------------------
     ethr =  6.15E-09,  avg # of iterations =  1.0
     Minimization algorithm failed to find Fermi energy: reverting to bisection
     Possible cause: smearing is larger than the electronic band-gap.

     negative rho (up, down):  9.839E-02 9.857E-02

     total cpu time spent up to now is      441.8 secs

     WARNING: integrated charge=   142.00839877, expected=   142.00000000

     total energy              =   -1500.03257281 Ry
     estimated scf accuracy    <       0.00023789 Ry

     total magnetization       =     6.00 Bohr mag/cell
     absolute magnetization    =     6.07 Bohr mag/cell
[tb_dev] Currently allocated     7.71E+00 Mbytes, locked:    0 /   8
[tb_pin] Currently allocated     0.00E+00 Mbytes, locked:    0 /   0

     iteration # 20     ecut=    50.00 Ry     beta= 0.40
     Davidson diagonalization with overlap

---- Real-time Memory Report at c_bands before calling an iterative solver
          4761 MiB given to the printing process from OS
           405 MiB allocation reported by mallinfo(arena+hblkhd)
         54607 MiB available memory on the node where the printing process lives
     GPU memory used/free/total (MiB): 4176 / 12104 / 16280
------------------
     ethr =  6.15E-09,  avg # of iterations =  1.0

     negative rho (up, down):  9.839E-02 9.857E-02

     total cpu time spent up to now is      457.3 secs

     WARNING: integrated charge=   142.00837518, expected=   142.00000000

     total energy              =   -1500.03120424 Ry
     estimated scf accuracy    <       0.00000872 Ry

     total magnetization       =     5.99 Bohr mag/cell
     absolute magnetization    =     6.06 Bohr mag/cell
[tb_dev] Currently allocated     7.71E+00 Mbytes, locked:    0 /   8
[tb_pin] Currently allocated     0.00E+00 Mbytes, locked:    0 /   0

     iteration # 21     ecut=    50.00 Ry     beta= 0.40
     Davidson diagonalization with overlap

---- Real-time Memory Report at c_bands before calling an iterative solver
          4761 MiB given to the printing process from OS
           405 MiB allocation reported by mallinfo(arena+hblkhd)
         54607 MiB available memory on the node where the printing process lives
     GPU memory used/free/total (MiB): 4176 / 12104 / 16280
------------------
     ethr =  6.14E-09,  avg # of iterations =  1.0

     negative rho (up, down):  9.838E-02 9.857E-02

     total cpu time spent up to now is      472.7 secs

     WARNING: integrated charge=   142.00840224, expected=   142.00000000

     total energy              =   -1500.03120463 Ry
     estimated scf accuracy    <       0.00000882 Ry

     total magnetization       =     5.99 Bohr mag/cell
     absolute magnetization    =     6.06 Bohr mag/cell
[tb_dev] Currently allocated     7.71E+00 Mbytes, locked:    0 /   8
[tb_pin] Currently allocated     0.00E+00 Mbytes, locked:    0 /   0

     iteration # 22     ecut=    50.00 Ry     beta= 0.40
     Davidson diagonalization with overlap

---- Real-time Memory Report at c_bands before calling an iterative solver
          4761 MiB given to the printing process from OS
           405 MiB allocation reported by mallinfo(arena+hblkhd)
         54607 MiB available memory on the node where the printing process lives
     GPU memory used/free/total (MiB): 4176 / 12104 / 16280
------------------
     ethr =  6.14E-09,  avg # of iterations =  1.0
     Minimization algorithm failed to find Fermi energy: reverting to bisection
     Possible cause: smearing is larger than the electronic band-gap.

     negative rho (up, down):  9.838E-02 9.857E-02

     total cpu time spent up to now is      488.1 secs

     WARNING: integrated charge=   142.00837075, expected=   142.00000000

     total energy              =   -1500.03257294 Ry
     estimated scf accuracy    <       0.00023661 Ry

     total magnetization       =     6.00 Bohr mag/cell
     absolute magnetization    =     6.07 Bohr mag/cell
[tb_dev] Currently allocated     7.71E+00 Mbytes, locked:    0 /   8
[tb_pin] Currently allocated     0.00E+00 Mbytes, locked:    0 /   0

     iteration # 23     ecut=    50.00 Ry     beta= 0.40
     Davidson diagonalization with overlap

---- Real-time Memory Report at c_bands before calling an iterative solver
          4761 MiB given to the printing process from OS
           405 MiB allocation reported by mallinfo(arena+hblkhd)
         54607 MiB available memory on the node where the printing process lives
     GPU memory used/free/total (MiB): 4176 / 12104 / 16280
------------------
     ethr =  6.14E-09,  avg # of iterations =  1.0

     negative rho (up, down):  9.838E-02 9.857E-02

     total cpu time spent up to now is      503.5 secs

     WARNING: integrated charge=   142.00837740, expected=   142.00000000

     total energy              =   -1500.03120449 Ry
     estimated scf accuracy    <       0.00000880 Ry

     total magnetization       =     5.99 Bohr mag/cell
     absolute magnetization    =     6.06 Bohr mag/cell
[tb_dev] Currently allocated     7.71E+00 Mbytes, locked:    0 /   8
[tb_pin] Currently allocated     0.00E+00 Mbytes, locked:    0 /   0

     iteration # 24     ecut=    50.00 Ry     beta= 0.40
     Davidson diagonalization with overlap

---- Real-time Memory Report at c_bands before calling an iterative solver
          4761 MiB given to the printing process from OS
           405 MiB allocation reported by mallinfo(arena+hblkhd)
         54607 MiB available memory on the node where the printing process lives
     GPU memory used/free/total (MiB): 4176 / 12104 / 16280
------------------
     ethr =  6.14E-09,  avg # of iterations =  1.0

     negative rho (up, down):  9.838E-02 9.857E-02

     total cpu time spent up to now is      518.9 secs

     WARNING: integrated charge=   142.00838983, expected=   142.00000000

     total energy              =   -1500.03120409 Ry
     estimated scf accuracy    <       0.00000875 Ry

     total magnetization       =     5.99 Bohr mag/cell
     absolute magnetization    =     6.06 Bohr mag/cell
[tb_dev] Currently allocated     7.71E+00 Mbytes, locked:    0 /   8
[tb_pin] Currently allocated     0.00E+00 Mbytes, locked:    0 /   0

     iteration # 25     ecut=    50.00 Ry     beta= 0.40
     Davidson diagonalization with overlap

---- Real-time Memory Report at c_bands before calling an iterative solver
          4761 MiB given to the printing process from OS
           405 MiB allocation reported by mallinfo(arena+hblkhd)
         54607 MiB available memory on the node where the printing process lives
     GPU memory used/free/total (MiB): 4176 / 12104 / 16280
------------------
     ethr =  6.14E-09,  avg # of iterations =  1.0
     Minimization algorithm failed to find Fermi energy: reverting to bisection
     Possible cause: smearing is larger than the electronic band-gap.

     negative rho (up, down):  9.838E-02 9.857E-02

     total cpu time spent up to now is      534.3 secs

     WARNING: integrated charge=   142.00837244, expected=   142.00000000

     total energy              =   -1500.03257300 Ry
     estimated scf accuracy    <       0.00023579 Ry

     total magnetization       =     6.00 Bohr mag/cell
     absolute magnetization    =     6.07 Bohr mag/cell
[tb_dev] Currently allocated     7.71E+00 Mbytes, locked:    0 /   8
[tb_pin] Currently allocated     0.00E+00 Mbytes, locked:    0 /   0

     iteration # 26     ecut=    50.00 Ry     beta= 0.40
     Davidson diagonalization with overlap

---- Real-time Memory Report at c_bands before calling an iterative solver
          4761 MiB given to the printing process from OS
           405 MiB allocation reported by mallinfo(arena+hblkhd)
         54607 MiB available memory on the node where the printing process lives
     GPU memory used/free/total (MiB): 4176 / 12104 / 16280
------------------
     ethr =  6.14E-09,  avg # of iterations =  1.0

     negative rho (up, down):  9.838E-02 9.857E-02

     total cpu time spent up to now is      549.7 secs

     WARNING: integrated charge=   142.00837654, expected=   142.00000000

     total energy              =   -1500.03120467 Ry
     estimated scf accuracy    <       0.00000882 Ry

     total magnetization       =     5.99 Bohr mag/cell
     absolute magnetization    =     6.06 Bohr mag/cell
[tb_dev] Currently allocated     7.71E+00 Mbytes, locked:    0 /   8
[tb_pin] Currently allocated     0.00E+00 Mbytes, locked:    0 /   0

     iteration # 27     ecut=    50.00 Ry     beta= 0.40
     Davidson diagonalization with overlap

---- Real-time Memory Report at c_bands before calling an iterative solver
          4761 MiB given to the printing process from OS
           405 MiB allocation reported by mallinfo(arena+hblkhd)
         54607 MiB available memory on the node where the printing process lives
     GPU memory used/free/total (MiB): 4176 / 12104 / 16280
------------------
     ethr =  6.14E-09,  avg # of iterations =  1.0

     negative rho (up, down):  9.838E-02 9.857E-02

     total cpu time spent up to now is      565.1 secs

     WARNING: integrated charge=   142.00838256, expected=   142.00000000

     total energy              =   -1500.03120446 Ry
     estimated scf accuracy    <       0.00000879 Ry

     total magnetization       =     5.99 Bohr mag/cell
     absolute magnetization    =     6.06 Bohr mag/cell
[tb_dev] Currently allocated     7.71E+00 Mbytes, locked:    0 /   8
[tb_pin] Currently allocated     0.00E+00 Mbytes, locked:    0 /   0

     iteration # 28     ecut=    50.00 Ry     beta= 0.40
     Davidson diagonalization with overlap

---- Real-time Memory Report at c_bands before calling an iterative solver
          4761 MiB given to the printing process from OS
           405 MiB allocation reported by mallinfo(arena+hblkhd)
         54606 MiB available memory on the node where the printing process lives
     GPU memory used/free/total (MiB): 4176 / 12104 / 16280
------------------
     ethr =  6.14E-09,  avg # of iterations =  1.0

     negative rho (up, down):  9.838E-02 9.857E-02

     total cpu time spent up to now is      580.6 secs

     WARNING: integrated charge=   142.00838002, expected=   142.00000000

     total energy              =   -1500.03120413 Ry
     estimated scf accuracy    <       0.00000874 Ry

     total magnetization       =     5.99 Bohr mag/cell
     absolute magnetization    =     6.06 Bohr mag/cell
[tb_dev] Currently allocated     7.71E+00 Mbytes, locked:    0 /   8
[tb_pin] Currently allocated     0.00E+00 Mbytes, locked:    0 /   0

     iteration # 29     ecut=    50.00 Ry     beta= 0.40
     Davidson diagonalization with overlap

---- Real-time Memory Report at c_bands before calling an iterative solver
          4761 MiB given to the printing process from OS
           405 MiB allocation reported by mallinfo(arena+hblkhd)
         54607 MiB available memory on the node where the printing process lives
     GPU memory used/free/total (MiB): 4176 / 12104 / 16280
------------------
     ethr =  6.14E-09,  avg # of iterations =  1.0

     negative rho (up, down):  9.838E-02 9.857E-02

     total cpu time spent up to now is      596.0 secs

     WARNING: integrated charge=   142.00837955, expected=   142.00000000

     total energy              =   -1500.03120429 Ry
     estimated scf accuracy    <       0.00000876 Ry

     total magnetization       =     5.99 Bohr mag/cell
     absolute magnetization    =     6.06 Bohr mag/cell
[tb_dev] Currently allocated     7.71E+00 Mbytes, locked:    0 /   8
[tb_pin] Currently allocated     0.00E+00 Mbytes, locked:    0 /   0

     iteration # 30     ecut=    50.00 Ry     beta= 0.40
     Davidson diagonalization with overlap

---- Real-time Memory Report at c_bands before calling an iterative solver
          4761 MiB given to the printing process from OS
           405 MiB allocation reported by mallinfo(arena+hblkhd)
         54607 MiB available memory on the node where the printing process lives
     GPU memory used/free/total (MiB): 4176 / 12104 / 16280
------------------
     ethr =  6.14E-09,  avg # of iterations =  1.0

     negative rho (up, down):  9.838E-02 9.857E-02

     total cpu time spent up to now is      611.5 secs

     WARNING: integrated charge=   142.00838073, expected=   142.00000000

     total energy              =   -1500.03120434 Ry
     estimated scf accuracy    <       0.00000877 Ry

     total magnetization       =     5.99 Bohr mag/cell
     absolute magnetization    =     6.06 Bohr mag/cell
[tb_dev] Currently allocated     7.71E+00 Mbytes, locked:    0 /   8
[tb_pin] Currently allocated     0.00E+00 Mbytes, locked:    0 /   0

     iteration # 31     ecut=    50.00 Ry     beta= 0.40
     Davidson diagonalization with overlap

---- Real-time Memory Report at c_bands before calling an iterative solver
          4761 MiB given to the printing process from OS
           405 MiB allocation reported by mallinfo(arena+hblkhd)
         54607 MiB available memory on the node where the printing process lives
     GPU memory used/free/total (MiB): 4176 / 12104 / 16280
------------------
     ethr =  6.14E-09,  avg # of iterations =  1.0

     negative rho (up, down):  9.838E-02 9.856E-02

     total cpu time spent up to now is      626.9 secs

     WARNING: integrated charge=   142.00838257, expected=   142.00000000

     total energy              =   -1500.03120425 Ry
     estimated scf accuracy    <       0.00000876 Ry

     total magnetization       =     5.99 Bohr mag/cell
     absolute magnetization    =     6.06 Bohr mag/cell
[tb_dev] Currently allocated     7.71E+00 Mbytes, locked:    0 /   8
[tb_pin] Currently allocated     0.00E+00 Mbytes, locked:    0 /   0

     iteration # 32     ecut=    50.00 Ry     beta= 0.40
     Davidson diagonalization with overlap

---- Real-time Memory Report at c_bands before calling an iterative solver
          4761 MiB given to the printing process from OS
           405 MiB allocation reported by mallinfo(arena+hblkhd)
         54606 MiB available memory on the node where the printing process lives
     GPU memory used/free/total (MiB): 4176 / 12104 / 16280
------------------
     ethr =  6.14E-09,  avg # of iterations =  1.0

     negative rho (up, down):  9.838E-02 9.856E-02

     total cpu time spent up to now is      642.4 secs

     WARNING: integrated charge=   142.00838332, expected=   142.00000000

     total energy              =   -1500.03120420 Ry
     estimated scf accuracy    <       0.00000875 Ry

     total magnetization       =     5.99 Bohr mag/cell
     absolute magnetization    =     6.06 Bohr mag/cell
[tb_dev] Currently allocated     7.71E+00 Mbytes, locked:    0 /   8
[tb_pin] Currently allocated     0.00E+00 Mbytes, locked:    0 /   0

     iteration # 33     ecut=    50.00 Ry     beta= 0.40
     Davidson diagonalization with overlap

---- Real-time Memory Report at c_bands before calling an iterative solver
          4761 MiB given to the printing process from OS
           405 MiB allocation reported by mallinfo(arena+hblkhd)
         54606 MiB available memory on the node where the printing process lives
     GPU memory used/free/total (MiB): 4176 / 12104 / 16280
------------------
     ethr =  6.14E-09,  avg # of iterations =  1.0

     negative rho (up, down):  9.838E-02 9.856E-02

     total cpu time spent up to now is      657.7 secs

     WARNING: integrated charge=   142.00838354, expected=   142.00000000

     total energy              =   -1500.03120418 Ry
     estimated scf accuracy    <       0.00000874 Ry

     total magnetization       =     5.99 Bohr mag/cell
     absolute magnetization    =     6.06 Bohr mag/cell
[tb_dev] Currently allocated     7.71E+00 Mbytes, locked:    0 /   8
[tb_pin] Currently allocated     0.00E+00 Mbytes, locked:    0 /   0

     iteration # 34     ecut=    50.00 Ry     beta= 0.40
     Davidson diagonalization with overlap

---- Real-time Memory Report at c_bands before calling an iterative solver
          4761 MiB given to the printing process from OS
           405 MiB allocation reported by mallinfo(arena+hblkhd)
         54606 MiB available memory on the node where the printing process lives
     GPU memory used/free/total (MiB): 4176 / 12104 / 16280
------------------
     ethr =  6.14E-09,  avg # of iterations =  1.0

     negative rho (up, down):  9.808E-02 9.848E-02

     total cpu time spent up to now is      673.1 secs

     WARNING: integrated charge=   142.01047492, expected=   142.00000000

     total energy              =   -1500.03120276 Ry
     estimated scf accuracy    <       0.00000874 Ry

     total magnetization       =     5.99 Bohr mag/cell
     absolute magnetization    =     6.06 Bohr mag/cell
[tb_dev] Currently allocated     7.71E+00 Mbytes, locked:    0 /   8
[tb_pin] Currently allocated     0.00E+00 Mbytes, locked:    0 /   0

     iteration # 35     ecut=    50.00 Ry     beta= 0.40
     Davidson diagonalization with overlap

---- Real-time Memory Report at c_bands before calling an iterative solver
          4761 MiB given to the printing process from OS
           405 MiB allocation reported by mallinfo(arena+hblkhd)
         54607 MiB available memory on the node where the printing process lives
     GPU memory used/free/total (MiB): 4176 / 12104 / 16280
------------------
     ethr =  6.14E-09,  avg # of iterations =  2.0
     Minimization algorithm failed to find Fermi energy: reverting to bisection
     Possible cause: smearing is larger than the electronic band-gap.

     negative rho (up, down):  9.837E-02 9.856E-02

     total cpu time spent up to now is      690.5 secs

     WARNING: integrated charge=   142.00867188, expected=   142.00000000

     total energy              =   -1500.03257370 Ry
     estimated scf accuracy    <       0.00035652 Ry

     total magnetization       =     6.00 Bohr mag/cell
     absolute magnetization    =     6.07 Bohr mag/cell
[tb_dev] Currently allocated     7.71E+00 Mbytes, locked:    0 /   8
[tb_pin] Currently allocated     0.00E+00 Mbytes, locked:    0 /   0

     iteration # 36     ecut=    50.00 Ry     beta= 0.40
     Davidson diagonalization with overlap

---- Real-time Memory Report at c_bands before calling an iterative solver
          4761 MiB given to the printing process from OS
           405 MiB allocation reported by mallinfo(arena+hblkhd)
         54607 MiB available memory on the node where the printing process lives
     GPU memory used/free/total (MiB): 4176 / 12104 / 16280
------------------
     ethr =  6.14E-09,  avg # of iterations =  1.5
     Minimization algorithm failed to find Fermi energy: reverting to bisection
     Possible cause: smearing is larger than the electronic band-gap.

     negative rho (up, down):  9.838E-02 9.857E-02

     total cpu time spent up to now is      706.7 secs

     WARNING: integrated charge=   142.00843063, expected=   142.00000000

     total energy              =   -1500.03257320 Ry
     estimated scf accuracy    <       0.00025327 Ry

     total magnetization       =     6.00 Bohr mag/cell
     absolute magnetization    =     6.07 Bohr mag/cell
[tb_dev] Currently allocated     7.71E+00 Mbytes, locked:    0 /   8
[tb_pin] Currently allocated     0.00E+00 Mbytes, locked:    0 /   0

     iteration # 37     ecut=    50.00 Ry     beta= 0.40
     Davidson diagonalization with overlap

---- Real-time Memory Report at c_bands before calling an iterative solver
          4761 MiB given to the printing process from OS
           405 MiB allocation reported by mallinfo(arena+hblkhd)
         54607 MiB available memory on the node where the printing process lives
     GPU memory used/free/total (MiB): 4176 / 12104 / 16280
------------------
     ethr =  6.14E-09,  avg # of iterations =  1.0
     Minimization algorithm failed to find Fermi energy: reverting to bisection
     Possible cause: smearing is larger than the electronic band-gap.

     negative rho (up, down):  9.838E-02 9.857E-02

     total cpu time spent up to now is      722.1 secs

     WARNING: integrated charge=   142.00837757, expected=   142.00000000

     total energy              =   -1500.03257298 Ry
     estimated scf accuracy    <       0.00023889 Ry

     total magnetization       =     6.00 Bohr mag/cell
     absolute magnetization    =     6.07 Bohr mag/cell
[tb_dev] Currently allocated     7.71E+00 Mbytes, locked:    0 /   8
[tb_pin] Currently allocated     0.00E+00 Mbytes, locked:    0 /   0

     iteration # 38     ecut=    50.00 Ry     beta= 0.40
     Davidson diagonalization with overlap

---- Real-time Memory Report at c_bands before calling an iterative solver
          4761 MiB given to the printing process from OS
           405 MiB allocation reported by mallinfo(arena+hblkhd)
         54607 MiB available memory on the node where the printing process lives
     GPU memory used/free/total (MiB): 4176 / 12104 / 16280
------------------
     ethr =  6.14E-09,  avg # of iterations =  1.0

     negative rho (up, down):  9.838E-02 9.856E-02

     total cpu time spent up to now is      737.4 secs

     WARNING: integrated charge=   142.00839619, expected=   142.00000000

     total energy              =   -1500.03120477 Ry
     estimated scf accuracy    <       0.00000867 Ry

     total magnetization       =     5.99 Bohr mag/cell
     absolute magnetization    =     6.06 Bohr mag/cell
[tb_dev] Currently allocated     7.71E+00 Mbytes, locked:    0 /   8
[tb_pin] Currently allocated     0.00E+00 Mbytes, locked:    0 /   0

     iteration # 39     ecut=    50.00 Ry     beta= 0.40
     Davidson diagonalization with overlap

---- Real-time Memory Report at c_bands before calling an iterative solver
          4761 MiB given to the printing process from OS
           405 MiB allocation reported by mallinfo(arena+hblkhd)
         54607 MiB available memory on the node where the printing process lives
     GPU memory used/free/total (MiB): 4176 / 12104 / 16280
------------------
     ethr =  6.11E-09,  avg # of iterations =  1.0
     Minimization algorithm failed to find Fermi energy: reverting to bisection
     Possible cause: smearing is larger than the electronic band-gap.

     negative rho (up, down):  9.838E-02 9.856E-02

     total cpu time spent up to now is      752.8 secs

     WARNING: integrated charge=   142.00839203, expected=   142.00000000

     total energy              =   -1500.03257316 Ry
     estimated scf accuracy    <       0.00023645 Ry

     total magnetization       =     6.00 Bohr mag/cell
     absolute magnetization    =     6.07 Bohr mag/cell
[tb_dev] Currently allocated     7.71E+00 Mbytes, locked:    0 /   8
[tb_pin] Currently allocated     0.00E+00 Mbytes, locked:    0 /   0

     iteration # 40     ecut=    50.00 Ry     beta= 0.40
     Davidson diagonalization with overlap

---- Real-time Memory Report at c_bands before calling an iterative solver
          4761 MiB given to the printing process from OS
           405 MiB allocation reported by mallinfo(arena+hblkhd)
         54607 MiB available memory on the node where the printing process lives
     GPU memory used/free/total (MiB): 4176 / 12104 / 16280
------------------
     ethr =  6.11E-09,  avg # of iterations =  1.0
     Minimization algorithm failed to find Fermi energy: reverting to bisection
     Possible cause: smearing is larger than the electronic band-gap.

     negative rho (up, down):  9.838E-02 9.856E-02

     total cpu time spent up to now is      768.2 secs

     WARNING: integrated charge=   142.00839305, expected=   142.00000000

     total energy              =   -1500.03257317 Ry
     estimated scf accuracy    <       0.00023613 Ry

     total magnetization       =     6.00 Bohr mag/cell
     absolute magnetization    =     6.07 Bohr mag/cell
[tb_dev] Currently allocated     7.71E+00 Mbytes, locked:    0 /   8
[tb_pin] Currently allocated     0.00E+00 Mbytes, locked:    0 /   0

     iteration # 41     ecut=    50.00 Ry     beta= 0.40
     Davidson diagonalization with overlap

---- Real-time Memory Report at c_bands before calling an iterative solver
          4761 MiB given to the printing process from OS
           405 MiB allocation reported by mallinfo(arena+hblkhd)
         54606 MiB available memory on the node where the printing process lives
     GPU memory used/free/total (MiB): 4176 / 12104 / 16280
------------------
     ethr =  6.11E-09,  avg # of iterations =  1.0
     Minimization algorithm failed to find Fermi energy: reverting to bisection
     Possible cause: smearing is larger than the electronic band-gap.

     negative rho (up, down):  9.838E-02 9.856E-02

     total cpu time spent up to now is      783.7 secs

     WARNING: integrated charge=   142.00839409, expected=   142.00000000

     total energy              =   -1500.03257316 Ry
     estimated scf accuracy    <       0.00023610 Ry

     total magnetization       =     6.00 Bohr mag/cell
     absolute magnetization    =     6.07 Bohr mag/cell
[tb_dev] Currently allocated     7.71E+00 Mbytes, locked:    0 /   8
[tb_pin] Currently allocated     0.00E+00 Mbytes, locked:    0 /   0

     iteration # 42     ecut=    50.00 Ry     beta= 0.40
     Davidson diagonalization with overlap

---- Real-time Memory Report at c_bands before calling an iterative solver
          4761 MiB given to the printing process from OS
           405 MiB allocation reported by mallinfo(arena+hblkhd)
         54601 MiB available memory on the node where the printing process lives
     GPU memory used/free/total (MiB): 4176 / 12104 / 16280
------------------
     ethr =  6.11E-09,  avg # of iterations =  1.0
     Minimization algorithm failed to find Fermi energy: reverting to bisection
     Possible cause: smearing is larger than the electronic band-gap.

     negative rho (up, down):  9.838E-02 9.856E-02

     total cpu time spent up to now is      799.0 secs

     WARNING: integrated charge=   142.00838954, expected=   142.00000000

     total energy              =   -1500.03257310 Ry
     estimated scf accuracy    <       0.00023606 Ry

     total magnetization       =     6.00 Bohr mag/cell
     absolute magnetization    =     6.07 Bohr mag/cell
[tb_dev] Currently allocated     7.71E+00 Mbytes, locked:    0 /   8
[tb_pin] Currently allocated     0.00E+00 Mbytes, locked:    0 /   0

     iteration # 43     ecut=    50.00 Ry     beta= 0.40
     Davidson diagonalization with overlap

---- Real-time Memory Report at c_bands before calling an iterative solver
          4761 MiB given to the printing process from OS
           405 MiB allocation reported by mallinfo(arena+hblkhd)
         54606 MiB available memory on the node where the printing process lives
     GPU memory used/free/total (MiB): 4176 / 12104 / 16280
------------------
     ethr =  6.11E-09,  avg # of iterations =  1.0

     negative rho (up, down):  9.838E-02 9.856E-02

     total cpu time spent up to now is      814.4 secs

     WARNING: integrated charge=   142.00839021, expected=   142.00000000

     total energy              =   -1500.03120405 Ry
     estimated scf accuracy    <       0.00000868 Ry

     total magnetization       =     5.99 Bohr mag/cell
     absolute magnetization    =     6.06 Bohr mag/cell
[tb_dev] Currently allocated     7.71E+00 Mbytes, locked:    0 /   8
[tb_pin] Currently allocated     0.00E+00 Mbytes, locked:    0 /   0

     iteration # 44     ecut=    50.00 Ry     beta= 0.40
     Davidson diagonalization with overlap

---- Real-time Memory Report at c_bands before calling an iterative solver
          4761 MiB given to the printing process from OS
           405 MiB allocation reported by mallinfo(arena+hblkhd)
         54606 MiB available memory on the node where the printing process lives
     GPU memory used/free/total (MiB): 4176 / 12104 / 16280
------------------
     ethr =  6.11E-09,  avg # of iterations =  1.0

     negative rho (up, down):  9.838E-02 9.856E-02

     total cpu time spent up to now is      829.8 secs

     WARNING: integrated charge=   142.00839485, expected=   142.00000000

     total energy              =   -1500.03120405 Ry
     estimated scf accuracy    <       0.00000868 Ry

     total magnetization       =     5.99 Bohr mag/cell
     absolute magnetization    =     6.06 Bohr mag/cell
[tb_dev] Currently allocated     7.71E+00 Mbytes, locked:    0 /   8
[tb_pin] Currently allocated     0.00E+00 Mbytes, locked:    0 /   0

     iteration # 45     ecut=    50.00 Ry     beta= 0.40
     Davidson diagonalization with overlap

---- Real-time Memory Report at c_bands before calling an iterative solver
          4761 MiB given to the printing process from OS
           405 MiB allocation reported by mallinfo(arena+hblkhd)
         54606 MiB available memory on the node where the printing process lives
     GPU memory used/free/total (MiB): 4176 / 12104 / 16280
------------------
     ethr =  6.11E-09,  avg # of iterations =  1.0
     Minimization algorithm failed to find Fermi energy: reverting to bisection
     Possible cause: smearing is larger than the electronic band-gap.

     negative rho (up, down):  9.838E-02 9.857E-02

     total cpu time spent up to now is      845.3 secs

     WARNING: integrated charge=   142.00838991, expected=   142.00000000

     total energy              =   -1500.03257309 Ry
     estimated scf accuracy    <       0.00023581 Ry

     total magnetization       =     6.00 Bohr mag/cell
     absolute magnetization    =     6.07 Bohr mag/cell
[tb_dev] Currently allocated     7.71E+00 Mbytes, locked:    0 /   8
[tb_pin] Currently allocated     0.00E+00 Mbytes, locked:    0 /   0

     iteration # 46     ecut=    50.00 Ry     beta= 0.40
     Davidson diagonalization with overlap

---- Real-time Memory Report at c_bands before calling an iterative solver
          4761 MiB given to the printing process from OS
           405 MiB allocation reported by mallinfo(arena+hblkhd)
         54606 MiB available memory on the node where the printing process lives
     GPU memory used/free/total (MiB): 4176 / 12104 / 16280
------------------
     ethr =  6.11E-09,  avg # of iterations =  1.0

     negative rho (up, down):  9.838E-02 9.856E-02

     total cpu time spent up to now is      860.7 secs

     WARNING: integrated charge=   142.00838876, expected=   142.00000000

     total energy              =   -1500.03120407 Ry
     estimated scf accuracy    <       0.00000868 Ry

     total magnetization       =     5.99 Bohr mag/cell
     absolute magnetization    =     6.06 Bohr mag/cell
[tb_dev] Currently allocated     7.71E+00 Mbytes, locked:    0 /   8
[tb_pin] Currently allocated     0.00E+00 Mbytes, locked:    0 /   0

     iteration # 47     ecut=    50.00 Ry     beta= 0.40
     Davidson diagonalization with overlap

---- Real-time Memory Report at c_bands before calling an iterative solver
          4761 MiB given to the printing process from OS
           405 MiB allocation reported by mallinfo(arena+hblkhd)
         54607 MiB available memory on the node where the printing process lives
     GPU memory used/free/total (MiB): 4176 / 12104 / 16280
------------------
     ethr =  6.11E-09,  avg # of iterations =  1.0

     negative rho (up, down):  9.838E-02 9.856E-02

     total cpu time spent up to now is      876.1 secs

     WARNING: integrated charge=   142.00838838, expected=   142.00000000

     total energy              =   -1500.03120406 Ry
     estimated scf accuracy    <       0.00000869 Ry

     total magnetization       =     5.99 Bohr mag/cell
     absolute magnetization    =     6.06 Bohr mag/cell
[tb_dev] Currently allocated     7.71E+00 Mbytes, locked:    0 /   8
[tb_pin] Currently allocated     0.00E+00 Mbytes, locked:    0 /   0

     iteration # 48     ecut=    50.00 Ry     beta= 0.40
     Davidson diagonalization with overlap

---- Real-time Memory Report at c_bands before calling an iterative solver
          4761 MiB given to the printing process from OS
           405 MiB allocation reported by mallinfo(arena+hblkhd)
         54606 MiB available memory on the node where the printing process lives
     GPU memory used/free/total (MiB): 4176 / 12104 / 16280
------------------
     ethr =  6.11E-09,  avg # of iterations =  1.0

     negative rho (up, down):  9.838E-02 9.856E-02

     total cpu time spent up to now is      891.6 secs

     WARNING: integrated charge=   142.00838798, expected=   142.00000000

     total energy              =   -1500.03120407 Ry
     estimated scf accuracy    <       0.00000869 Ry

     total magnetization       =     5.99 Bohr mag/cell
     absolute magnetization    =     6.06 Bohr mag/cell
[tb_dev] Currently allocated     7.71E+00 Mbytes, locked:    0 /   8
[tb_pin] Currently allocated     0.00E+00 Mbytes, locked:    0 /   0

     iteration # 49     ecut=    50.00 Ry     beta= 0.40
     Davidson diagonalization with overlap

---- Real-time Memory Report at c_bands before calling an iterative solver
          4761 MiB given to the printing process from OS
           405 MiB allocation reported by mallinfo(arena+hblkhd)
         54607 MiB available memory on the node where the printing process lives
     GPU memory used/free/total (MiB): 4176 / 12104 / 16280
------------------
     ethr =  6.11E-09,  avg # of iterations =  1.0

     negative rho (up, down):  9.838E-02 9.856E-02

     total cpu time spent up to now is      907.1 secs

     WARNING: integrated charge=   142.00838871, expected=   142.00000000

     total energy              =   -1500.03120407 Ry
     estimated scf accuracy    <       0.00000869 Ry

     total magnetization       =     5.99 Bohr mag/cell
     absolute magnetization    =     6.06 Bohr mag/cell
[tb_dev] Currently allocated     7.71E+00 Mbytes, locked:    0 /   8
[tb_pin] Currently allocated     0.00E+00 Mbytes, locked:    0 /   0

     iteration # 50     ecut=    50.00 Ry     beta= 0.40
     Davidson diagonalization with overlap

---- Real-time Memory Report at c_bands before calling an iterative solver
[...]
------------------
     ethr =  5.97E-09,  avg # of iterations =  1.0
     Minimization algorithm failed to find Fermi energy: reverting to bisection
     Possible cause: smearing is larger than the electronic band-gap.

     negative rho (up, down):  9.838E-02 9.856E-02

     total cpu time spent up to now is     1189.6 secs

     WARNING: integrated charge=   142.00839572, expected=   142.00000000

     total energy              =   -1500.03257315 Ry
     estimated scf accuracy    <       0.00023962 Ry

     total magnetization       =     6.00 Bohr mag/cell
     absolute magnetization    =     6.07 Bohr mag/cell
[tb_dev] Currently allocated     7.71E+00 Mbytes, locked:    0 /   8
[tb_pin] Currently allocated     0.00E+00 Mbytes, locked:    0 /   0

     iteration # 68     ecut=    50.00 Ry     beta= 0.40
     Davidson diagonalization with overlap

---- Real-time Memory Report at c_bands before calling an iterative solver
          4761 MiB given to the printing process from OS
           405 MiB allocation reported by mallinfo(arena+hblkhd)
         54603 MiB available memory on the node where the printing process lives
     GPU memory used/free/total (MiB): 4176 / 12104 / 16280
------------------
     ethr =  5.97E-09,  avg # of iterations =  1.0
     Minimization algorithm failed to find Fermi energy: reverting to bisection
     Possible cause: smearing is larger than the electronic band-gap.

     negative rho (up, down):  9.838E-02 9.856E-02

     total cpu time spent up to now is     1205.0 secs

     WARNING: integrated charge=   142.00839226, expected=   142.00000000

     total energy              =   -1500.03257314 Ry
     estimated scf accuracy    <       0.00023678 Ry

     total magnetization       =     6.00 Bohr mag/cell
     absolute magnetization    =     6.07 Bohr mag/cell
[tb_dev] Currently allocated     7.71E+00 Mbytes, locked:    0 /   8
[tb_pin] Currently allocated     0.00E+00 Mbytes, locked:    0 /   0

     iteration # 69     ecut=    50.00 Ry     beta= 0.40
     Davidson diagonalization with overlap

---- Real-time Memory Report at c_bands before calling an iterative solver
          4761 MiB given to the printing process from OS
           405 MiB allocation reported by mallinfo(arena+hblkhd)
         54603 MiB available memory on the node where the printing process lives
     GPU memory used/free/total (MiB): 4176 / 12104 / 16280
------------------
     ethr =  5.97E-09,  avg # of iterations =  1.0
     Minimization algorithm failed to find Fermi energy: reverting to bisection
     Possible cause: smearing is larger than the electronic band-gap.

     negative rho (up, down):  9.838E-02 9.856E-02

     total cpu time spent up to now is     1220.6 secs

     WARNING: integrated charge=   142.00838317, expected=   142.00000000

     total energy              =   -1500.03257309 Ry
     estimated scf accuracy    <       0.00023637 Ry

     total magnetization       =     6.00 Bohr mag/cell
     absolute magnetization    =     6.07 Bohr mag/cell
[tb_dev] Currently allocated     7.71E+00 Mbytes, locked:    0 /   8
[tb_pin] Currently allocated     0.00E+00 Mbytes, locked:    0 /   0

     iteration # 70     ecut=    50.00 Ry     beta= 0.40
     Davidson diagonalization with overlap

---- Real-time Memory Report at c_bands before calling an iterative solver
          4761 MiB given to the printing process from OS
           405 MiB allocation reported by mallinfo(arena+hblkhd)
         54603 MiB available memory on the node where the printing process lives
     GPU memory used/free/total (MiB): 4176 / 12104 / 16280
------------------
     ethr =  5.97E-09,  avg # of iterations =  1.0

     negative rho (up, down):  9.838E-02 9.856E-02

     total cpu time spent up to now is     1236.1 secs

     WARNING: integrated charge=   142.00837749, expected=   142.00000000

     total energy              =   -1500.03120428 Ry
     estimated scf accuracy    <       0.00000866 Ry

     total magnetization       =     5.99 Bohr mag/cell
     absolute magnetization    =     6.06 Bohr mag/cell
[tb_dev] Currently allocated     7.71E+00 Mbytes, locked:    0 /   8
[tb_pin] Currently allocated     0.00E+00 Mbytes, locked:    0 /   0

     iteration # 71     ecut=    50.00 Ry     beta= 0.40
     Davidson diagonalization with overlap

---- Real-time Memory Report at c_bands before calling an iterative solver
          4761 MiB given to the printing process from OS
           405 MiB allocation reported by mallinfo(arena+hblkhd)
         54603 MiB available memory on the node where the printing process lives
     GPU memory used/free/total (MiB): 4176 / 12104 / 16280
------------------
     ethr =  5.97E-09,  avg # of iterations =  1.0

     negative rho (up, down):  9.838E-02 9.856E-02

     total cpu time spent up to now is     1251.6 secs

     WARNING: integrated charge=   142.00837577, expected=   142.00000000

     total energy              =   -1500.03120462 Ry
     estimated scf accuracy    <       0.00000873 Ry

     total magnetization       =     5.99 Bohr mag/cell
     absolute magnetization    =     6.06 Bohr mag/cell
[tb_dev] Currently allocated     7.71E+00 Mbytes, locked:    0 /   8
[tb_pin] Currently allocated     0.00E+00 Mbytes, locked:    0 /   0

     iteration # 72     ecut=    50.00 Ry     beta= 0.40
     Davidson diagonalization with overlap

---- Real-time Memory Report at c_bands before calling an iterative solver
          4761 MiB given to the printing process from OS
           405 MiB allocation reported by mallinfo(arena+hblkhd)
         54603 MiB available memory on the node where the printing process lives
     GPU memory used/free/total (MiB): 4176 / 12104 / 16280
------------------
     ethr =  5.97E-09,  avg # of iterations =  1.0

     negative rho (up, down):  9.838E-02 9.856E-02

     total cpu time spent up to now is     1267.1 secs

     WARNING: integrated charge=   142.00836885, expected=   142.00000000

     total energy              =   -1500.03120474 Ry
     estimated scf accuracy    <       0.00000877 Ry

     total magnetization       =     5.99 Bohr mag/cell
     absolute magnetization    =     6.06 Bohr mag/cell
[tb_dev] Currently allocated     7.71E+00 Mbytes, locked:    0 /   8
[tb_pin] Currently allocated     0.00E+00 Mbytes, locked:    0 /   0

     iteration # 73     ecut=    50.00 Ry     beta= 0.40
     Davidson diagonalization with overlap

---- Real-time Memory Report at c_bands before calling an iterative solver
          4761 MiB given to the printing process from OS
           405 MiB allocation reported by mallinfo(arena+hblkhd)
         54604 MiB available memory on the node where the printing process lives
     GPU memory used/free/total (MiB): 4176 / 12104 / 16280
------------------
     ethr =  5.97E-09,  avg # of iterations =  1.0

     negative rho (up, down):  9.838E-02 9.856E-02

     total cpu time spent up to now is     1282.6 secs

     WARNING: integrated charge=   142.00837343, expected=   142.00000000

     total energy              =   -1500.03120521 Ry
     estimated scf accuracy    <       0.00000883 Ry

     total magnetization       =     5.99 Bohr mag/cell
     absolute magnetization    =     6.06 Bohr mag/cell
[tb_dev] Currently allocated     7.71E+00 Mbytes, locked:    0 /   8
[tb_pin] Currently allocated     0.00E+00 Mbytes, locked:    0 /   0

     iteration # 74     ecut=    50.00 Ry     beta= 0.40
     Davidson diagonalization with overlap

---- Real-time Memory Report at c_bands before calling an iterative solver
          4761 MiB given to the printing process from OS
           405 MiB allocation reported by mallinfo(arena+hblkhd)
         54604 MiB available memory on the node where the printing process lives
     GPU memory used/free/total (MiB): 4176 / 12104 / 16280
------------------
     ethr =  5.97E-09,  avg # of iterations =  1.0

     negative rho (up, down):  9.838E-02 9.856E-02

     total cpu time spent up to now is     1298.2 secs

     WARNING: integrated charge=   142.00837747, expected=   142.00000000

     total energy              =   -1500.03120503 Ry
     estimated scf accuracy    <       0.00000881 Ry

     total magnetization       =     5.99 Bohr mag/cell
     absolute magnetization    =     6.06 Bohr mag/cell
[tb_dev] Currently allocated     7.71E+00 Mbytes, locked:    0 /   8
[tb_pin] Currently allocated     0.00E+00 Mbytes, locked:    0 /   0

     iteration # 75     ecut=    50.00 Ry     beta= 0.40
     Davidson diagonalization with overlap

---- Real-time Memory Report at c_bands before calling an iterative solver
          4761 MiB given to the printing process from OS
           405 MiB allocation reported by mallinfo(arena+hblkhd)
         54604 MiB available memory on the node where the printing process lives
     GPU memory used/free/total (MiB): 4176 / 12104 / 16280
------------------
     ethr =  5.97E-09,  avg # of iterations =  1.0

     negative rho (up, down):  9.838E-02 9.856E-02

     total cpu time spent up to now is     1313.5 secs

     WARNING: integrated charge=   142.00838716, expected=   142.00000000

     total energy              =   -1500.03120480 Ry
     estimated scf accuracy    <       0.00000878 Ry

     total magnetization       =     5.99 Bohr mag/cell
     absolute magnetization    =     6.06 Bohr mag/cell
[tb_dev] Currently allocated     7.71E+00 Mbytes, locked:    0 /   8
[tb_pin] Currently allocated     0.00E+00 Mbytes, locked:    0 /   0

     iteration # 76     ecut=    50.00 Ry     beta= 0.40
     Davidson diagonalization with overlap

---- Real-time Memory Report at c_bands before calling an iterative solver
          4761 MiB given to the printing process from OS
           405 MiB allocation reported by mallinfo(arena+hblkhd)
         54602 MiB available memory on the node where the printing process lives
     GPU memory used/free/total (MiB): 4176 / 12104 / 16280
------------------
     ethr =  5.97E-09,  avg # of iterations =  1.0

     negative rho (up, down):  9.838E-02 9.856E-02

     total cpu time spent up to now is     1329.0 secs

     WARNING: integrated charge=   142.00839170, expected=   142.00000000

     total energy              =   -1500.03120416 Ry
     estimated scf accuracy    <       0.00000871 Ry

     total magnetization       =     5.99 Bohr mag/cell
     absolute magnetization    =     6.06 Bohr mag/cell
[tb_dev] Currently allocated     7.71E+00 Mbytes, locked:    0 /   8
[tb_pin] Currently allocated     0.00E+00 Mbytes, locked:    0 /   0

     iteration # 77     ecut=    50.00 Ry     beta= 0.40
     Davidson diagonalization with overlap

---- Real-time Memory Report at c_bands before calling an iterative solver
          4761 MiB given to the printing process from OS
           405 MiB allocation reported by mallinfo(arena+hblkhd)
         54604 MiB available memory on the node where the printing process lives
     GPU memory used/free/total (MiB): 4176 / 12104 / 16280
------------------
     ethr =  5.97E-09,  avg # of iterations =  1.0
     Minimization algorithm failed to find Fermi energy: reverting to bisection
     Possible cause: smearing is larger than the electronic band-gap.

     negative rho (up, down):  9.838E-02 9.856E-02

     total cpu time spent up to now is     1344.6 secs

     WARNING: integrated charge=   142.00839074, expected=   142.00000000

     total energy              =   -1500.03257312 Ry
     estimated scf accuracy    <       0.00023562 Ry

     total magnetization       =     6.00 Bohr mag/cell
     absolute magnetization    =     6.07 Bohr mag/cell
[tb_dev] Currently allocated     7.71E+00 Mbytes, locked:    0 /   8
[tb_pin] Currently allocated     0.00E+00 Mbytes, locked:    0 /   0

     iteration # 78     ecut=    50.00 Ry     beta= 0.40
     Davidson diagonalization with overlap

---- Real-time Memory Report at c_bands before calling an iterative solver
          4761 MiB given to the printing process from OS
           405 MiB allocation reported by mallinfo(arena+hblkhd)
         54604 MiB available memory on the node where the printing process lives
     GPU memory used/free/total (MiB): 4176 / 12104 / 16280
------------------
     ethr =  5.97E-09,  avg # of iterations =  1.0
     Minimization algorithm failed to find Fermi energy: reverting to bisection
     Possible cause: smearing is larger than the electronic band-gap.

     negative rho (up, down):  9.838E-02 9.856E-02

     total cpu time spent up to now is     1360.4 secs

     WARNING: integrated charge=   142.00838980, expected=   142.00000000

     total energy              =   -1500.03257312 Ry
     estimated scf accuracy    <       0.00023561 Ry

     total magnetization       =     6.00 Bohr mag/cell
     absolute magnetization    =     6.07 Bohr mag/cell
[tb_dev] Currently allocated     7.71E+00 Mbytes, locked:    0 /   8
[tb_pin] Currently allocated     0.00E+00 Mbytes, locked:    0 /   0

     iteration # 79     ecut=    50.00 Ry     beta= 0.40
     Davidson diagonalization with overlap

---- Real-time Memory Report at c_bands before calling an iterative solver
          4761 MiB given to the printing process from OS
           405 MiB allocation reported by mallinfo(arena+hblkhd)
         54604 MiB available memory on the node where the printing process lives
     GPU memory used/free/total (MiB): 4176 / 12104 / 16280
------------------
     ethr =  5.97E-09,  avg # of iterations =  1.0
     Minimization algorithm failed to find Fermi energy: reverting to bisection
     Possible cause: smearing is larger than the electronic band-gap.

     negative rho (up, down):  9.838E-02 9.856E-02

     total cpu time spent up to now is     1376.0 secs

     WARNING: integrated charge=   142.00838279, expected=   142.00000000

     total energy              =   -1500.03257307 Ry
     estimated scf accuracy    <       0.00023552 Ry

     total magnetization       =     6.00 Bohr mag/cell
     absolute magnetization    =     6.07 Bohr mag/cell
[tb_dev] Currently allocated     7.71E+00 Mbytes, locked:    0 /   8
[tb_pin] Currently allocated     0.00E+00 Mbytes, locked:    0 /   0

     iteration # 80     ecut=    50.00 Ry     beta= 0.40
     Davidson diagonalization with overlap

---- Real-time Memory Report at c_bands before calling an iterative solver
          4761 MiB given to the printing process from OS
           405 MiB allocation reported by mallinfo(arena+hblkhd)
         54605 MiB available memory on the node where the printing process lives
     GPU memory used/free/total (MiB): 4176 / 12104 / 16280
------------------
     ethr =  5.97E-09,  avg # of iterations =  1.0

     negative rho (up, down):  9.838E-02 9.856E-02

     total cpu time spent up to now is     1391.5 secs

     WARNING: integrated charge=   142.00838440, expected=   142.00000000

     total energy              =   -1500.03120453 Ry
     estimated scf accuracy    <       0.00000877 Ry

     total magnetization       =     5.99 Bohr mag/cell
     absolute magnetization    =     6.06 Bohr mag/cell

     End of self-consistent calculation

     convergence NOT achieved after  80 iterations: stopping

     Writing config to output data dir ./out/aiida.save/
 
     init_run     :     25.97s CPU     16.50s WALL (       1 calls)
     electrons    :   1598.21s CPU   1374.17s WALL (       1 calls)

     Called by init_run:
     wfcinit      :     10.37s CPU     12.54s WALL (       1 calls)
                                       12.54s GPU  (       1 calls)
     wfcinit:atom :      0.13s CPU      0.24s WALL (     144 calls)
                                        0.24s GPU  (     144 calls)
     wfcinit:wfcr :      5.10s CPU      5.85s WALL (     144 calls)
                                        5.85s GPU  (     144 calls)
     potinit      :      4.49s CPU      0.39s WALL (       1 calls)
     hinit0       :      8.49s CPU      2.56s WALL (       1 calls)

     Called by electrons:
     c_bands      :   1060.90s CPU   1085.36s WALL (      81 calls)
     sum_band     :    248.63s CPU    261.72s WALL (      81 calls)
     v_of_rho     :     62.53s CPU      5.61s WALL (      81 calls)
     v_h          :      9.42s CPU      0.83s WALL (      81 calls)
     v_xc         :     53.09s CPU      4.78s WALL (      81 calls)
     newd         :    123.02s CPU     11.59s WALL (      81 calls)
                                       11.59s GPU  (      81 calls)
     mix_rho      :     78.33s CPU      7.62s WALL (      81 calls)

     Called by c_bands:
     init_us_2    :     55.69s CPU     70.29s WALL (   23472 calls)
     init_us_2:gp :     55.19s CPU     69.82s WALL (   23472 calls)
     cegterg      :    802.79s CPU    831.76s WALL (   11664 calls)

     Called by sum_band:
     sum_band:wei :      1.40s CPU      1.40s WALL (      81 calls)
                                        1.40s GPU  (      81 calls)
     sum_band:loo :    228.11s CPU    240.98s WALL (      81 calls)
                                      240.98s GPU  (      81 calls)
     sum_band:buf :     89.30s CPU     90.67s WALL (   11664 calls)
                                       90.59s GPU  (   11664 calls)
     sum_band:ini :     24.84s CPU     31.16s WALL (   11664 calls)
                                       31.09s GPU  (   11664 calls)
     sum_band:cal :      0.48s CPU     11.61s WALL (   11664 calls)
                                       10.62s GPU  (   11664 calls)
     sum_band:bec :      4.89s CPU      5.18s WALL (   11664 calls)
                                        5.11s GPU  (   11664 calls)
     addusdens    :     13.81s CPU     14.01s WALL (      81 calls)
                                       14.01s GPU  (      81 calls)
     addusd:skk   :      0.06s CPU      0.07s WALL (     243 calls)
                                        0.07s GPU  (     243 calls)

     Called by *egterg:
     cdiaghg      :    198.43s CPU    229.34s WALL (   31727 calls)
                                      229.11s GPU  (   31727 calls)
     cegterg:over :     20.13s CPU     20.67s WALL (   20207 calls)
     cegterg:upda :     24.01s CPU     24.82s WALL (   20207 calls)
     cegterg:last :     14.10s CPU     14.34s WALL (   15269 calls)
     h_psi        :    490.79s CPU    487.18s WALL (   32015 calls)
                                      485.96s GPU  (   32015 calls)
     s_psi        :      9.69s CPU     36.10s WALL (   32015 calls)
                                       33.52s GPU  (   32015 calls)
     g_psi        :      0.16s CPU      2.52s WALL (   20207 calls)
                                        2.39s GPU  (   20207 calls)

     Called by h_psi:
     h_psi:calbec :      1.17s CPU     25.42s WALL (   32015 calls)
                                       25.21s GPU  (   32015 calls)
     vloc_psi     :    424.91s CPU    420.95s WALL (   32015 calls)
                                      420.75s GPU  (   32015 calls)
     add_vuspsi   :     10.91s CPU     35.27s WALL (   32015 calls)
                                       35.06s GPU  (   32015 calls)

     General routines
     calbec       :      1.24s CPU      1.28s WALL (   43679 calls)
     fft          :      3.01s CPU      0.77s WALL (    2025 calls)
                                        0.61s GPU  (    1863 calls)
     ffts         :      0.25s CPU      0.07s WALL (     324 calls)
                                        0.02s GPU  (     162 calls)
     fftw         :      7.69s CPU    353.34s WALL (  378614 calls)
                                      350.05s GPU  (  378614 calls)
     interpolate  :      9.24s CPU      0.81s WALL (     162 calls)
     davcio       :      0.08s CPU      2.44s WALL (     162 calls)
 
     Parallel routines
 
     PWSCF        :  27m 7.47s CPU  23m14.75s WALL

 
   This run was terminated on:   0:39:50  23Oct2023            

=------------------------------------------------------------------------------=
   JOB DONE.
=------------------------------------------------------------------------------=
