
     Program PWSCF v.7.2 starts on 23Oct2023 at 21:33: 1 

     This program is part of the open-source Quantum ESPRESSO suite
     for quantum simulation of materials; please cite
         "P. Giannozzi et al., J. Phys.:Condens. Matter 21 395502 (2009);
         "P. Giannozzi et al., J. Phys.:Condens. Matter 29 465901 (2017);
         "P. Giannozzi et al., J. Chem. Phys. 152 154105 (2020);
          URL http://www.quantum-espresso.org", 
     in publications or presentations arising from this work. More details at
     http://www.quantum-espresso.org/quote

     Parallel version (MPI & OpenMP), running on      12 processor cores
     Number of MPI processes:                 1
     Threads/MPI process:                    12

     MPI processes distributed on     1 nodes
     60495 MiB available memory on the printing compute node when the environment starts
 
     Reading input from aiida.in

     Current dimensions of program PWSCF are:
     Max number of different atomic species (ntypx) = 10
     Max number of k-points (npk) =  40000
     Max angular momentum in pseudopotentials (lmaxx) =  4
     file Ba.pbesol-spn-kjpaw_psl.1.0.0.UPF: wavefunction(s)  5S 6S renormalized
     Message from routine setup:
     using ibrav=0 with symmetry is DISCOURAGED, use correct ibrav instead
 
     Subspace diagonalization in iterative solution of the eigenvalue problem:
     a serial algorithm will be used

 
     G-vector sticks info
     --------------------
     sticks:   dense  smooth     PW     G-vecs:    dense   smooth      PW
     Sum        2837    1419    401               161137    56931    8661
 
     Using Slab Decomposition
 


     bravais-lattice index     =            0
     lattice parameter (alat)  =      15.8548  a.u.
     unit-cell volume          =    2567.1972 (a.u.)^3
     number of atoms/cell      =           12
     number of atomic types    =            3
     number of electrons       =        96.00
     number of Kohn-Sham states=           58
     kinetic-energy cutoff     =      30.0000  Ry
     charge density cutoff     =     240.0000  Ry
     scf convergence threshold =      2.4E-09
     mixing beta               =       0.2000
     number of iterations used =            8  plain     mixing
     Exchange-correlation= PBESOL
                           (   1   4  10   8   0   0   0)

     GPU acceleration is ACTIVE.


     GPU used by master process:

        Device Number: 0
        Device name: Tesla P100-PCIE-16GB
        Compute capability : 60
        Ratio of single to double precision performance  : 2
        Memory Clock Rate (KHz): 715000
        Memory Bus Width (bits): 4096
        Peak Memory Bandwidth (GB/s): 732.16

     celldm(1)=  15.854802  celldm(2)=   0.000000  celldm(3)=   0.000000
     celldm(4)=   0.000000  celldm(5)=   0.000000  celldm(6)=   0.000000

     crystal axes: (cart. coord. in units of alat)
               a(1) = (   1.000000   0.000000   0.000000 )  
               a(2) = (   0.000000   0.589988   0.000000 )  
               a(3) = (   0.000000   0.000000   1.091776 )  

     reciprocal axes: (cart. coord. in units 2 pi/alat)
               b(1) = (  1.000000  0.000000  0.000000 )  
               b(2) = (  0.000000  1.694949  0.000000 )  
               b(3) = (  0.000000  0.000000  0.915939 )  


     PseudoPot. # 1 for Ba read from file:
     ./pseudo/Ba.pbesol-spn-kjpaw_psl.1.0.0.UPF
     MD5 check sum: f28c4a63d325c1a0d00fd3a4f19b8d73
     Pseudo is Projector augmented-wave + core cor, Zval = 10.0
     Generated using "atomic" code by A. Dal Corso  v.6.0 svn rev. 13079
     Shape of augmentation charge: PSQ
     Using radial grid of 1251 points,  7 beta functions with: 
                l(1) =   0
                l(2) =   0
                l(3) =   0
                l(4) =   1
                l(5) =   1
                l(6) =   2
                l(7) =   2
     Q(r) pseudized with 0 coefficients 


     PseudoPot. # 2 for Ca read from file:
     ./pseudo/ca_pbesol_v1.uspp.F.UPF
     MD5 check sum: 0533207b58cddeaa036efa5b63902087
     Pseudo is Ultrasoft + core correction, Zval = 10.0
     Generated by new atomic code, or converted to UPF format
     Using radial grid of  845 points,  6 beta functions with: 
                l(1) =   0
                l(2) =   0
                l(3) =   1
                l(4) =   1
                l(5) =   2
                l(6) =   2
     Q(r) pseudized with  8 coefficients,  rinner =    1.500   1.500   1.500
                                                       1.500   1.500

     PseudoPot. # 3 for Si read from file:
     ./pseudo/Si.pbesol-n-rrkjus_psl.1.0.0.UPF
     MD5 check sum: c4212819de858c94c3a1644338846ac9
     Pseudo is Ultrasoft + core correction, Zval =  4.0
     Generated using "atomic" code by A. Dal Corso  v.6.0 svn rev. 13079
     Using radial grid of 1141 points,  6 beta functions with: 
                l(1) =   0
                l(2) =   0
                l(3) =   1
                l(4) =   1
                l(5) =   2
                l(6) =   2
     Q(r) pseudized with 0 coefficients 


     atomic species   valence    mass     pseudopotential
        Ba            10.00   137.32700     Ba( 1.00)
        Ca            10.00    40.07800     Ca( 1.00)
        Si             4.00    28.08550     Si( 1.00)

     Starting magnetic structure 
     atomic species   magnetization
        Ba           0.100
        Ca           0.100
        Si           0.100

      8 Sym. Ops., with inversion, found ( 6 have fractional translation)


                                    s                        frac. trans.

      isym =  1     identity                                     

 cryst.   s( 1) = (     1          0          0      )
                  (     0          1          0      )
                  (     0          0          1      )

 cart.    s( 1) = (  1.0000000  0.0000000  0.0000000 )
                  (  0.0000000  1.0000000  0.0000000 )
                  (  0.0000000  0.0000000  1.0000000 )


      isym =  2     180 deg rotation - cart. axis [0,0,1]        

 cryst.   s( 2) = (    -1          0          0      )    f =( -0.5000000 )
                  (     0         -1          0      )       (  0.0000000 )
                  (     0          0          1      )       (  0.5000000 )

 cart.    s( 2) = ( -1.0000000  0.0000000  0.0000000 )    f =( -0.5000000 )
                  (  0.0000000 -1.0000000  0.0000000 )       (  0.0000000 )
                  (  0.0000000  0.0000000  1.0000000 )       (  0.5458880 )


      isym =  3     180 deg rotation - cart. axis [0,1,0]        

 cryst.   s( 3) = (    -1          0          0      )    f =(  0.0000000 )
                  (     0          1          0      )       (  0.5000000 )
                  (     0          0         -1      )       (  0.0000000 )

 cart.    s( 3) = ( -1.0000000  0.0000000  0.0000000 )    f =(  0.0000000 )
                  (  0.0000000  1.0000000  0.0000000 )       (  0.2949940 )
                  (  0.0000000  0.0000000 -1.0000000 )       (  0.0000000 )


      isym =  4     180 deg rotation - cart. axis [1,0,0]        

 cryst.   s( 4) = (     1          0          0      )    f =( -0.5000000 )
                  (     0         -1          0      )       (  0.5000000 )
                  (     0          0         -1      )       (  0.5000000 )

 cart.    s( 4) = (  1.0000000  0.0000000  0.0000000 )    f =( -0.5000000 )
                  (  0.0000000 -1.0000000  0.0000000 )       (  0.2949940 )
                  (  0.0000000  0.0000000 -1.0000000 )       (  0.5458880 )


      isym =  5     inversion                                    

 cryst.   s( 5) = (    -1          0          0      )
                  (     0         -1          0      )
                  (     0          0         -1      )

 cart.    s( 5) = ( -1.0000000  0.0000000  0.0000000 )
                  (  0.0000000 -1.0000000  0.0000000 )
                  (  0.0000000  0.0000000 -1.0000000 )


      isym =  6     inv. 180 deg rotation - cart. axis [0,0,1]   

 cryst.   s( 6) = (     1          0          0      )    f =( -0.5000000 )
                  (     0          1          0      )       (  0.0000000 )
                  (     0          0         -1      )       (  0.5000000 )

 cart.    s( 6) = (  1.0000000  0.0000000  0.0000000 )    f =( -0.5000000 )
                  (  0.0000000  1.0000000  0.0000000 )       (  0.0000000 )
                  (  0.0000000  0.0000000 -1.0000000 )       (  0.5458880 )


      isym =  7     inv. 180 deg rotation - cart. axis [0,1,0]   

 cryst.   s( 7) = (     1          0          0      )    f =(  0.0000000 )
                  (     0         -1          0      )       (  0.5000000 )
                  (     0          0          1      )       (  0.0000000 )

 cart.    s( 7) = (  1.0000000  0.0000000  0.0000000 )    f =(  0.0000000 )
                  (  0.0000000 -1.0000000  0.0000000 )       (  0.2949940 )
                  (  0.0000000  0.0000000  1.0000000 )       (  0.0000000 )


      isym =  8     inv. 180 deg rotation - cart. axis [1,0,0]   

 cryst.   s( 8) = (    -1          0          0      )    f =( -0.5000000 )
                  (     0          1          0      )       (  0.5000000 )
                  (     0          0          1      )       (  0.5000000 )

 cart.    s( 8) = ( -1.0000000  0.0000000  0.0000000 )    f =( -0.5000000 )
                  (  0.0000000  1.0000000  0.0000000 )       (  0.2949940 )
                  (  0.0000000  0.0000000  1.0000000 )       (  0.5458880 )


   Cartesian axes

     site n.     atom                  positions (alat units)
         1           Ba  tau(   1) = (   0.9760000   0.4424911   0.7391323  )
         2           Ba  tau(   2) = (   0.4760000   0.4424911   0.8985316  )
         3           Ba  tau(   3) = (   0.0240000   0.1474970   0.3526436  )
         4           Ba  tau(   4) = (   0.5240000   0.1474970   0.1932443  )
         5           Ca  tau(   5) = (   0.8560000   0.4424911   0.0829750  )
         6           Ca  tau(   6) = (   0.3560000   0.4424911   0.4629130  )
         7           Ca  tau(   7) = (   0.1440000   0.1474970   1.0088010  )
         8           Ca  tau(   8) = (   0.6440000   0.1474970   0.6288629  )
         9           Si  tau(   9) = (   0.7240000   0.4424911   0.4268844  )
        10           Si  tau(  10) = (   0.2240000   0.4424911   0.1190036  )
        11           Si  tau(  11) = (   0.2760000   0.1474970   0.6648915  )
        12           Si  tau(  12) = (   0.7760000   0.1474970   0.9727723  )

   Crystallographic axes

     site n.     atom                  positions (cryst. coord.)
         1           Ba  tau(   1) = (  0.9760000  0.7500000  0.6770000  )
         2           Ba  tau(   2) = (  0.4760000  0.7500000  0.8230000  )
         3           Ba  tau(   3) = (  0.0240000  0.2500000  0.3230000  )
         4           Ba  tau(   4) = (  0.5240000  0.2500000  0.1770000  )
         5           Ca  tau(   5) = (  0.8560000  0.7500000  0.0760000  )
         6           Ca  tau(   6) = (  0.3560000  0.7500000  0.4240000  )
         7           Ca  tau(   7) = (  0.1440000  0.2500000  0.9240000  )
         8           Ca  tau(   8) = (  0.6440000  0.2500000  0.5760000  )
         9           Si  tau(   9) = (  0.7240000  0.7500000  0.3910000  )
        10           Si  tau(  10) = (  0.2240000  0.7500000  0.1090000  )
        11           Si  tau(  11) = (  0.2760000  0.2500000  0.6090000  )
        12           Si  tau(  12) = (  0.7760000  0.2500000  0.8910000  )

     number of k points=    45  Marzari-Vanderbilt smearing, width (Ry)=  0.0100
                       cart. coord. in units 2pi/alat
        k(    1) = (   0.0000000   0.0000000   0.0000000), wk =   0.0044444
        k(    2) = (   0.0000000   0.0000000   0.1831878), wk =   0.0088889
        k(    3) = (   0.0000000   0.0000000   0.3663755), wk =   0.0088889
        k(    4) = (   0.0000000   0.1883277   0.0000000), wk =   0.0088889
        k(    5) = (   0.0000000   0.1883277   0.1831878), wk =   0.0177778
        k(    6) = (   0.0000000   0.1883277   0.3663755), wk =   0.0177778
        k(    7) = (   0.0000000   0.3766554   0.0000000), wk =   0.0088889
        k(    8) = (   0.0000000   0.3766554   0.1831878), wk =   0.0177778
        k(    9) = (   0.0000000   0.3766554   0.3663755), wk =   0.0177778
        k(   10) = (   0.0000000   0.5649832   0.0000000), wk =   0.0088889
        k(   11) = (   0.0000000   0.5649832   0.1831878), wk =   0.0177778
        k(   12) = (   0.0000000   0.5649832   0.3663755), wk =   0.0177778
        k(   13) = (   0.0000000   0.7533109   0.0000000), wk =   0.0088889
        k(   14) = (   0.0000000   0.7533109   0.1831878), wk =   0.0177778
        k(   15) = (   0.0000000   0.7533109   0.3663755), wk =   0.0177778
        k(   16) = (   0.2000000   0.0000000   0.0000000), wk =   0.0088889
        k(   17) = (   0.2000000   0.0000000   0.1831878), wk =   0.0177778
        k(   18) = (   0.2000000   0.0000000   0.3663755), wk =   0.0177778
        k(   19) = (   0.2000000   0.1883277   0.0000000), wk =   0.0177778
        k(   20) = (   0.2000000   0.1883277   0.1831878), wk =   0.0355556
        k(   21) = (   0.2000000   0.1883277   0.3663755), wk =   0.0355556
        k(   22) = (   0.2000000   0.3766554   0.0000000), wk =   0.0177778
        k(   23) = (   0.2000000   0.3766554   0.1831878), wk =   0.0355556
        k(   24) = (   0.2000000   0.3766554   0.3663755), wk =   0.0355556
        k(   25) = (   0.2000000   0.5649832   0.0000000), wk =   0.0177778
        k(   26) = (   0.2000000   0.5649832   0.1831878), wk =   0.0355556
        k(   27) = (   0.2000000   0.5649832   0.3663755), wk =   0.0355556
        k(   28) = (   0.2000000   0.7533109   0.0000000), wk =   0.0177778
        k(   29) = (   0.2000000   0.7533109   0.1831878), wk =   0.0355556
        k(   30) = (   0.2000000   0.7533109   0.3663755), wk =   0.0355556
        k(   31) = (   0.4000000   0.0000000   0.0000000), wk =   0.0088889
        k(   32) = (   0.4000000   0.0000000   0.1831878), wk =   0.0177778
        k(   33) = (   0.4000000   0.0000000   0.3663755), wk =   0.0177778
        k(   34) = (   0.4000000   0.1883277   0.0000000), wk =   0.0177778
        k(   35) = (   0.4000000   0.1883277   0.1831878), wk =   0.0355556
        k(   36) = (   0.4000000   0.1883277   0.3663755), wk =   0.0355556
        k(   37) = (   0.4000000   0.3766554   0.0000000), wk =   0.0177778
        k(   38) = (   0.4000000   0.3766554   0.1831878), wk =   0.0355556
        k(   39) = (   0.4000000   0.3766554   0.3663755), wk =   0.0355556
        k(   40) = (   0.4000000   0.5649832   0.0000000), wk =   0.0177778
        k(   41) = (   0.4000000   0.5649832   0.1831878), wk =   0.0355556
        k(   42) = (   0.4000000   0.5649832   0.3663755), wk =   0.0355556
        k(   43) = (   0.4000000   0.7533109   0.0000000), wk =   0.0177778
        k(   44) = (   0.4000000   0.7533109   0.1831878), wk =   0.0355556
        k(   45) = (   0.4000000   0.7533109   0.3663755), wk =   0.0355556

                       cryst. coord.
        k(    1) = (   0.0000000   0.0000000   0.0000000), wk =   0.0044444
        k(    2) = (   0.0000000   0.0000000   0.2000000), wk =   0.0088889
        k(    3) = (   0.0000000   0.0000000   0.4000000), wk =   0.0088889
        k(    4) = (   0.0000000   0.1111111   0.0000000), wk =   0.0088889
        k(    5) = (   0.0000000   0.1111111   0.2000000), wk =   0.0177778
        k(    6) = (   0.0000000   0.1111111   0.4000000), wk =   0.0177778
        k(    7) = (   0.0000000   0.2222222   0.0000000), wk =   0.0088889
        k(    8) = (   0.0000000   0.2222222   0.2000000), wk =   0.0177778
        k(    9) = (   0.0000000   0.2222222   0.4000000), wk =   0.0177778
        k(   10) = (   0.0000000   0.3333333   0.0000000), wk =   0.0088889
        k(   11) = (   0.0000000   0.3333333   0.2000000), wk =   0.0177778
        k(   12) = (   0.0000000   0.3333333   0.4000000), wk =   0.0177778
        k(   13) = (   0.0000000   0.4444444   0.0000000), wk =   0.0088889
        k(   14) = (   0.0000000   0.4444444   0.2000000), wk =   0.0177778
        k(   15) = (   0.0000000   0.4444444   0.4000000), wk =   0.0177778
        k(   16) = (   0.2000000   0.0000000   0.0000000), wk =   0.0088889
        k(   17) = (   0.2000000   0.0000000   0.2000000), wk =   0.0177778
        k(   18) = (   0.2000000   0.0000000   0.4000000), wk =   0.0177778
        k(   19) = (   0.2000000   0.1111111   0.0000000), wk =   0.0177778
        k(   20) = (   0.2000000   0.1111111   0.2000000), wk =   0.0355556
        k(   21) = (   0.2000000   0.1111111   0.4000000), wk =   0.0355556
        k(   22) = (   0.2000000   0.2222222   0.0000000), wk =   0.0177778
        k(   23) = (   0.2000000   0.2222222   0.2000000), wk =   0.0355556
        k(   24) = (   0.2000000   0.2222222   0.4000000), wk =   0.0355556
        k(   25) = (   0.2000000   0.3333333   0.0000000), wk =   0.0177778
        k(   26) = (   0.2000000   0.3333333   0.2000000), wk =   0.0355556
        k(   27) = (   0.2000000   0.3333333   0.4000000), wk =   0.0355556
        k(   28) = (   0.2000000   0.4444444   0.0000000), wk =   0.0177778
        k(   29) = (   0.2000000   0.4444444   0.2000000), wk =   0.0355556
        k(   30) = (   0.2000000   0.4444444   0.4000000), wk =   0.0355556
        k(   31) = (   0.4000000   0.0000000   0.0000000), wk =   0.0088889
        k(   32) = (   0.4000000   0.0000000   0.2000000), wk =   0.0177778
        k(   33) = (   0.4000000   0.0000000   0.4000000), wk =   0.0177778
        k(   34) = (   0.4000000   0.1111111   0.0000000), wk =   0.0177778
        k(   35) = (   0.4000000   0.1111111   0.2000000), wk =   0.0355556
        k(   36) = (   0.4000000   0.1111111   0.4000000), wk =   0.0355556
        k(   37) = (   0.4000000   0.2222222   0.0000000), wk =   0.0177778
        k(   38) = (   0.4000000   0.2222222   0.2000000), wk =   0.0355556
        k(   39) = (   0.4000000   0.2222222   0.4000000), wk =   0.0355556
        k(   40) = (   0.4000000   0.3333333   0.0000000), wk =   0.0177778
        k(   41) = (   0.4000000   0.3333333   0.2000000), wk =   0.0355556
        k(   42) = (   0.4000000   0.3333333   0.4000000), wk =   0.0355556
        k(   43) = (   0.4000000   0.4444444   0.0000000), wk =   0.0177778
        k(   44) = (   0.4000000   0.4444444   0.2000000), wk =   0.0355556
        k(   45) = (   0.4000000   0.4444444   0.4000000), wk =   0.0355556

     Dense  grid:   161137 G-vectors     FFT dimensions: (  80,  48,  90)

     Smooth grid:    56931 G-vectors     FFT dimensions: (  60,  36,  64)

     Dynamical RAM for                 wfc:       6.30 MB

     Dynamical RAM for     wfc (w. buffer):     573.66 MB

     Dynamical RAM for           str. fact:       7.38 MB

     Dynamical RAM for           local pot:       0.00 MB

     Dynamical RAM for          nlocal pot:      23.91 MB

     Dynamical RAM for                qrad:       4.98 MB

     Dynamical RAM for          rho,v,vnew:      30.57 MB

     Dynamical RAM for               rhoin:      10.19 MB

     Dynamical RAM for            rho*nmix:      78.68 MB

     Dynamical RAM for           G-vectors:       9.65 MB

     Dynamical RAM for          h,s,v(r/c):       0.62 MB

     Dynamical RAM for          <psi|beta>:       0.19 MB

     Dynamical RAM for                 psi:      12.61 MB

     Dynamical RAM for                hpsi:      12.61 MB

     Dynamical RAM for                spsi:      12.61 MB

     Dynamical RAM for      wfcinit/wfcrot:      12.69 MB

     Dynamical RAM for           addusdens:     516.34 MB

     Dynamical RAM for          addusforce:     531.13 MB

     Dynamical RAM for         addusstress:     544.61 MB

     Estimated static dynamical RAM per process >     685.99 MB

     Estimated max dynamical RAM per process >       1.28 GB

     Atomic positions and unit cell read from directory:
     ./out/aiida.save/
 
     Generating pointlists ...
     new r_m :   0.1655 (alat units)  2.6242 (a.u.) for type    1
     new r_m :   0.1511 (alat units)  2.3960 (a.u.) for type    2
     new r_m :   0.1511 (alat units)  2.3960 (a.u.) for type    3

     The initial density is read from file :
     ./out/aiida.save/charge-density


     negative rho (up, down):  3.000E+00 8.846E-01
     Starting wfcs from file
     Checking if some PAW data can be deallocated... 

     total cpu time spent up to now is        5.9 secs

     per-process dynamical memory:   482.2 Mb

     Self-consistent Calculation
[tb_dev] Currently allocated     9.16E-05 Mbytes, locked:    0 /   2
[tb_pin] Currently allocated     0.00E+00 Mbytes, locked:    0 /   0

     iteration #  1     ecut=    30.00 Ry     beta= 0.20
     Davidson diagonalization with overlap

---- Real-time Memory Report at c_bands before calling an iterative solver
           887 MiB given to the printing process from OS
           479 MiB allocation reported by mallinfo(arena+hblkhd)
         59028 MiB available memory on the node where the printing process lives
     GPU memory used/free/total (MiB): 910 / 15370 / 16280
------------------
     c_bands:  2 eigenvalues not converged
     c_bands:  1 eigenvalues not converged
     c_bands:  1 eigenvalues not converged
     c_bands:  1 eigenvalues not converged
     c_bands:  1 eigenvalues not converged
     c_bands:  1 eigenvalues not converged
     c_bands:  1 eigenvalues not converged
     c_bands:  1 eigenvalues not converged
     c_bands:  1 eigenvalues not converged
     c_bands:  1 eigenvalues not converged
     c_bands:  1 eigenvalues not converged
     c_bands:  1 eigenvalues not converged
     ethr =  1.00E-05,  avg # of iterations = 11.7

     negative rho (up, down):  2.883E+00 9.853E-01

     total cpu time spent up to now is       20.1 secs

     total energy              =   -2064.02326931 Ry
     estimated scf accuracy    <       0.57894576 Ry

     total magnetization       =    -0.00 Bohr mag/cell
     absolute magnetization    =     2.57 Bohr mag/cell
[tb_dev] Currently allocated     7.22E+00 Mbytes, locked:    0 /  12
[tb_pin] Currently allocated     0.00E+00 Mbytes, locked:    0 /   0

     iteration #  2     ecut=    30.00 Ry     beta= 0.20
     Davidson diagonalization with overlap

---- Real-time Memory Report at c_bands before calling an iterative solver
          2093 MiB given to the printing process from OS
          1370 MiB allocation reported by mallinfo(arena+hblkhd)
         57067 MiB available memory on the node where the printing process lives
     GPU memory used/free/total (MiB): 1932 / 14348 / 16280
------------------
     ethr =  6.03E-04,  avg # of iterations =  2.4

     negative rho (up, down):  2.836E+00 9.586E-01

     total cpu time spent up to now is       26.3 secs

     total energy              =   -2064.04953954 Ry
     estimated scf accuracy    <       1.00644871 Ry

     total magnetization       =     0.00 Bohr mag/cell
     absolute magnetization    =     4.31 Bohr mag/cell
[tb_dev] Currently allocated     7.22E+00 Mbytes, locked:    0 /  12
[tb_pin] Currently allocated     0.00E+00 Mbytes, locked:    0 /   0

     iteration #  3     ecut=    30.00 Ry     beta= 0.20
     Davidson diagonalization with overlap

---- Real-time Memory Report at c_bands before calling an iterative solver
          2203 MiB given to the printing process from OS
          1444 MiB allocation reported by mallinfo(arena+hblkhd)
         57047 MiB available memory on the node where the printing process lives
     GPU memory used/free/total (MiB): 1930 / 14350 / 16280
------------------
     ethr =  6.03E-04,  avg # of iterations =  2.0

     negative rho (up, down):  2.983E+00 9.072E-01

     total cpu time spent up to now is       32.3 secs

     total energy              =   -2063.95563121 Ry
     estimated scf accuracy    <       1.76728079 Ry

     total magnetization       =     0.00 Bohr mag/cell
     absolute magnetization    =     4.30 Bohr mag/cell
[tb_dev] Currently allocated     7.22E+00 Mbytes, locked:    0 /  12
[tb_pin] Currently allocated     0.00E+00 Mbytes, locked:    0 /   0

     iteration #  4     ecut=    30.00 Ry     beta= 0.20
     Davidson diagonalization with overlap

---- Real-time Memory Report at c_bands before calling an iterative solver
          2306 MiB given to the printing process from OS
          1457 MiB allocation reported by mallinfo(arena+hblkhd)
         57030 MiB available memory on the node where the printing process lives
     GPU memory used/free/total (MiB): 1930 / 14350 / 16280
------------------
     ethr =  6.03E-04,  avg # of iterations =  3.2

     negative rho (up, down):  2.955E+00 9.523E-01

     total cpu time spent up to now is       39.3 secs

     total energy              =   -2064.00581246 Ry
     estimated scf accuracy    <       0.23268612 Ry

     total magnetization       =    -0.00 Bohr mag/cell
     absolute magnetization    =     4.09 Bohr mag/cell
[tb_dev] Currently allocated     7.22E+00 Mbytes, locked:    0 /  12
[tb_pin] Currently allocated     0.00E+00 Mbytes, locked:    0 /   0

     iteration #  5     ecut=    30.00 Ry     beta= 0.20
     Davidson diagonalization with overlap

---- Real-time Memory Report at c_bands before calling an iterative solver
          2344 MiB given to the printing process from OS
          1472 MiB allocation reported by mallinfo(arena+hblkhd)
         57010 MiB available memory on the node where the printing process lives
     GPU memory used/free/total (MiB): 1930 / 14350 / 16280
------------------
     ethr =  2.42E-04,  avg # of iterations =  3.0

     negative rho (up, down):  2.946E+00 9.740E-01

     total cpu time spent up to now is       45.9 secs

     total energy              =   -2063.98600067 Ry
     estimated scf accuracy    <       0.79981503 Ry

     total magnetization       =    -0.00 Bohr mag/cell
     absolute magnetization    =     4.07 Bohr mag/cell
[tb_dev] Currently allocated     7.22E+00 Mbytes, locked:    0 /  12
[tb_pin] Currently allocated     0.00E+00 Mbytes, locked:    0 /   0

     iteration #  6     ecut=    30.00 Ry     beta= 0.20
     Davidson diagonalization with overlap

---- Real-time Memory Report at c_bands before calling an iterative solver
          2362 MiB given to the printing process from OS
          1485 MiB allocation reported by mallinfo(arena+hblkhd)
         56992 MiB available memory on the node where the printing process lives
     GPU memory used/free/total (MiB): 1930 / 14350 / 16280
------------------
     ethr =  2.42E-04,  avg # of iterations =  4.2

     negative rho (up, down):  2.955E+00 9.712E-01

     total cpu time spent up to now is       53.6 secs

     total energy              =   -2064.05340916 Ry
     estimated scf accuracy    <       2.46165712 Ry

     total magnetization       =    -0.00 Bohr mag/cell
     absolute magnetization    =     9.34 Bohr mag/cell
[tb_dev] Currently allocated     7.22E+00 Mbytes, locked:    0 /  12
[tb_pin] Currently allocated     0.00E+00 Mbytes, locked:    0 /   0

     iteration #  7     ecut=    30.00 Ry     beta= 0.20
     Davidson diagonalization with overlap

---- Real-time Memory Report at c_bands before calling an iterative solver
          2380 MiB given to the printing process from OS
          1497 MiB allocation reported by mallinfo(arena+hblkhd)
         56974 MiB available memory on the node where the printing process lives
     GPU memory used/free/total (MiB): 1930 / 14350 / 16280
------------------
     ethr =  2.42E-04,  avg # of iterations =  1.0

     negative rho (up, down):  2.860E+00 9.938E-01

     total cpu time spent up to now is       59.0 secs

     total energy              =   -2063.95278749 Ry
     estimated scf accuracy    <       2.34811743 Ry

     total magnetization       =    -0.00 Bohr mag/cell
     absolute magnetization    =     9.22 Bohr mag/cell
[tb_dev] Currently allocated     7.22E+00 Mbytes, locked:    0 /  12
[tb_pin] Currently allocated     0.00E+00 Mbytes, locked:    0 /   0

     iteration #  8     ecut=    30.00 Ry     beta= 0.20
     Davidson diagonalization with overlap

---- Real-time Memory Report at c_bands before calling an iterative solver
          2393 MiB given to the printing process from OS
          1450 MiB allocation reported by mallinfo(arena+hblkhd)
         56997 MiB available memory on the node where the printing process lives
     GPU memory used/free/total (MiB): 1930 / 14350 / 16280
------------------
     ethr =  2.42E-04,  avg # of iterations =  2.6

     negative rho (up, down):  2.833E+00 9.917E-01

     total cpu time spent up to now is       65.6 secs

     total energy              =   -2064.02711860 Ry
     estimated scf accuracy    <       0.45955456 Ry

     total magnetization       =    -0.00 Bohr mag/cell
     absolute magnetization    =     3.53 Bohr mag/cell
[tb_dev] Currently allocated     7.22E+00 Mbytes, locked:    0 /  12
[tb_pin] Currently allocated     0.00E+00 Mbytes, locked:    0 /   0

     iteration #  9     ecut=    30.00 Ry     beta= 0.20
     Davidson diagonalization with overlap

---- Real-time Memory Report at c_bands before calling an iterative solver
          2393 MiB given to the printing process from OS
          1461 MiB allocation reported by mallinfo(arena+hblkhd)
         56987 MiB available memory on the node where the printing process lives
     GPU memory used/free/total (MiB): 1930 / 14350 / 16280
------------------
     ethr =  2.42E-04,  avg # of iterations =  1.0

     negative rho (up, down):  2.894E+00 9.768E-01

     total cpu time spent up to now is       71.1 secs

     total energy              =   -2064.01923423 Ry
     estimated scf accuracy    <       0.61429253 Ry

     total magnetization       =    -0.00 Bohr mag/cell
     absolute magnetization    =     3.38 Bohr mag/cell
[tb_dev] Currently allocated     7.22E+00 Mbytes, locked:    0 /  12
[tb_pin] Currently allocated     0.00E+00 Mbytes, locked:    0 /   0

     iteration # 10     ecut=    30.00 Ry     beta= 0.20
     Davidson diagonalization with overlap

---- Real-time Memory Report at c_bands before calling an iterative solver
          2393 MiB given to the printing process from OS
          1472 MiB allocation reported by mallinfo(arena+hblkhd)
         56976 MiB available memory on the node where the printing process lives
     GPU memory used/free/total (MiB): 1930 / 14350 / 16280
------------------
     ethr =  2.42E-04,  avg # of iterations =  1.8

     negative rho (up, down):  3.077E+00 9.544E-01

     total cpu time spent up to now is       77.0 secs

     total energy              =   -2064.01237989 Ry
     estimated scf accuracy    <       0.73597127 Ry

     total magnetization       =    -0.00 Bohr mag/cell
     absolute magnetization    =     3.79 Bohr mag/cell
[tb_dev] Currently allocated     7.22E+00 Mbytes, locked:    0 /  12
[tb_pin] Currently allocated     0.00E+00 Mbytes, locked:    0 /   0

     iteration # 11     ecut=    30.00 Ry     beta= 0.20
     Davidson diagonalization with overlap

---- Real-time Memory Report at c_bands before calling an iterative solver
          2394 MiB given to the printing process from OS
          1480 MiB allocation reported by mallinfo(arena+hblkhd)
         56967 MiB available memory on the node where the printing process lives
     GPU memory used/free/total (MiB): 1930 / 14350 / 16280
------------------
     ethr =  2.42E-04,  avg # of iterations =  2.1

     negative rho (up, down):  3.113E+00 9.508E-01

     total cpu time spent up to now is       83.1 secs

     total energy              =   -2064.04298959 Ry
     estimated scf accuracy    <       0.61644379 Ry

     total magnetization       =    -0.00 Bohr mag/cell
     absolute magnetization    =     3.65 Bohr mag/cell
[tb_dev] Currently allocated     7.22E+00 Mbytes, locked:    0 /  12
[tb_pin] Currently allocated     0.00E+00 Mbytes, locked:    0 /   0

     iteration # 12     ecut=    30.00 Ry     beta= 0.20
     Davidson diagonalization with overlap

---- Real-time Memory Report at c_bands before calling an iterative solver
          2401 MiB given to the printing process from OS
          1488 MiB allocation reported by mallinfo(arena+hblkhd)
         56962 MiB available memory on the node where the printing process lives
     GPU memory used/free/total (MiB): 1930 / 14350 / 16280
------------------
     ethr =  2.42E-04,  avg # of iterations =  2.5

     negative rho (up, down):  3.115E+00 9.685E-01

     total cpu time spent up to now is       89.6 secs

     total energy              =   -2064.11230498 Ry
     estimated scf accuracy    <       3.72676043 Ry

     total magnetization       =    -0.00 Bohr mag/cell
     absolute magnetization    =     4.44 Bohr mag/cell
[tb_dev] Currently allocated     7.22E+00 Mbytes, locked:    0 /  12
[tb_pin] Currently allocated     0.00E+00 Mbytes, locked:    0 /   0

     iteration # 13     ecut=    30.00 Ry     beta= 0.20
     Davidson diagonalization with overlap

---- Real-time Memory Report at c_bands before calling an iterative solver
          2410 MiB given to the printing process from OS
          1495 MiB allocation reported by mallinfo(arena+hblkhd)
         56955 MiB available memory on the node where the printing process lives
     GPU memory used/free/total (MiB): 1930 / 14350 / 16280
------------------
     ethr =  2.42E-04,  avg # of iterations =  2.5

     negative rho (up, down):  3.133E+00 9.986E-01

     total cpu time spent up to now is       96.0 secs

     total energy              =   -2064.26230551 Ry
     estimated scf accuracy    <       7.59680430 Ry

     total magnetization       =    -0.00 Bohr mag/cell
     absolute magnetization    =     6.76 Bohr mag/cell
[tb_dev] Currently allocated     7.22E+00 Mbytes, locked:    0 /  12
[tb_pin] Currently allocated     0.00E+00 Mbytes, locked:    0 /   0

     iteration # 14     ecut=    30.00 Ry     beta= 0.20
     Davidson diagonalization with overlap

---- Real-time Memory Report at c_bands before calling an iterative solver
          2418 MiB given to the printing process from OS
          1503 MiB allocation reported by mallinfo(arena+hblkhd)
         56946 MiB available memory on the node where the printing process lives
     GPU memory used/free/total (MiB): 1930 / 14350 / 16280
------------------
     ethr =  2.42E-04,  avg # of iterations =  3.3

     negative rho (up, down):  3.008E+00 9.748E-01

     total cpu time spent up to now is      102.8 secs

     total energy              =   -2063.70623683 Ry
     estimated scf accuracy    <      22.09882168 Ry

     total magnetization       =    -0.00 Bohr mag/cell
     absolute magnetization    =    11.75 Bohr mag/cell
[tb_dev] Currently allocated     7.22E+00 Mbytes, locked:    0 /  12
[tb_pin] Currently allocated     0.00E+00 Mbytes, locked:    0 /   0

     iteration # 15     ecut=    30.00 Ry     beta= 0.20
     Davidson diagonalization with overlap

---- Real-time Memory Report at c_bands before calling an iterative solver
          2428 MiB given to the printing process from OS
          1512 MiB allocation reported by mallinfo(arena+hblkhd)
         56937 MiB available memory on the node where the printing process lives
     GPU memory used/free/total (MiB): 1930 / 14350 / 16280
------------------
     ethr =  2.42E-04,  avg # of iterations =  3.1

     negative rho (up, down):  3.376E+00 9.557E-01

     total cpu time spent up to now is      110.2 secs

     total energy              =   -2064.01304585 Ry
     estimated scf accuracy    <       0.29778197 Ry

     total magnetization       =    -0.00 Bohr mag/cell
     absolute magnetization    =     3.95 Bohr mag/cell
[tb_dev] Currently allocated     7.22E+00 Mbytes, locked:    0 /  12
[tb_pin] Currently allocated     0.00E+00 Mbytes, locked:    0 /   0

     iteration # 16     ecut=    30.00 Ry     beta= 0.20
     Davidson diagonalization with overlap

---- Real-time Memory Report at c_bands before calling an iterative solver
          2436 MiB given to the printing process from OS
          1520 MiB allocation reported by mallinfo(arena+hblkhd)
         56930 MiB available memory on the node where the printing process lives
     GPU memory used/free/total (MiB): 1930 / 14350 / 16280
------------------
     ethr =  2.42E-04,  avg # of iterations =  4.6

     negative rho (up, down):  3.281E+00 9.532E-01

     total cpu time spent up to now is      118.2 secs

     total energy              =   -2064.47631411 Ry
     estimated scf accuracy    <      39.94317620 Ry

     total magnetization       =    -0.00 Bohr mag/cell
     absolute magnetization    =    17.53 Bohr mag/cell
[tb_dev] Currently allocated     7.22E+00 Mbytes, locked:    0 /  12
[tb_pin] Currently allocated     0.00E+00 Mbytes, locked:    0 /   0

     iteration # 17     ecut=    30.00 Ry     beta= 0.20
     Davidson diagonalization with overlap

---- Real-time Memory Report at c_bands before calling an iterative solver
          2445 MiB given to the printing process from OS
          1528 MiB allocation reported by mallinfo(arena+hblkhd)
         56923 MiB available memory on the node where the printing process lives
     GPU memory used/free/total (MiB): 1930 / 14350 / 16280
------------------
     ethr =  2.42E-04,  avg # of iterations =  1.9

     negative rho (up, down):  3.039E+00 9.904E-01

     total cpu time spent up to now is      124.3 secs

     total energy              =   -2063.54799176 Ry
     estimated scf accuracy    <      36.76635741 Ry

     total magnetization       =    -0.00 Bohr mag/cell
     absolute magnetization    =    16.52 Bohr mag/cell
[tb_dev] Currently allocated     7.22E+00 Mbytes, locked:    0 /  12
[tb_pin] Currently allocated     0.00E+00 Mbytes, locked:    0 /   0

     iteration # 18     ecut=    30.00 Ry     beta= 0.20
     Davidson diagonalization with overlap

---- Real-time Memory Report at c_bands before calling an iterative solver
          2453 MiB given to the printing process from OS
          1537 MiB allocation reported by mallinfo(arena+hblkhd)
         56912 MiB available memory on the node where the printing process lives
     GPU memory used/free/total (MiB): 1930 / 14350 / 16280
------------------
     ethr =  2.42E-04,  avg # of iterations =  3.1

     negative rho (up, down):  3.118E+00 9.822E-01

     total cpu time spent up to now is      131.7 secs

     total energy              =   -2064.02938779 Ry
     estimated scf accuracy    <       0.52919011 Ry

     total magnetization       =    -0.00 Bohr mag/cell
     absolute magnetization    =     5.55 Bohr mag/cell
[tb_dev] Currently allocated     7.22E+00 Mbytes, locked:    0 /  12
[tb_pin] Currently allocated     0.00E+00 Mbytes, locked:    0 /   0

     iteration # 19     ecut=    30.00 Ry     beta= 0.20
     Davidson diagonalization with overlap

---- Real-time Memory Report at c_bands before calling an iterative solver
          2462 MiB given to the printing process from OS
          1545 MiB allocation reported by mallinfo(arena+hblkhd)
         56905 MiB available memory on the node where the printing process lives
     GPU memory used/free/total (MiB): 1930 / 14350 / 16280
------------------
     ethr =  2.42E-04,  avg # of iterations =  3.0

     negative rho (up, down):  3.057E+00 1.004E+00

     total cpu time spent up to now is      138.5 secs

     total energy              =   -2064.03229635 Ry
     estimated scf accuracy    <       7.63423591 Ry

     total magnetization       =    -0.00 Bohr mag/cell
     absolute magnetization    =     7.54 Bohr mag/cell
[tb_dev] Currently allocated     7.22E+00 Mbytes, locked:    0 /  12
[tb_pin] Currently allocated     0.00E+00 Mbytes, locked:    0 /   0

     iteration # 20     ecut=    30.00 Ry     beta= 0.20
     Davidson diagonalization with overlap

---- Real-time Memory Report at c_bands before calling an iterative solver
          2472 MiB given to the printing process from OS
          1554 MiB allocation reported by mallinfo(arena+hblkhd)
         56896 MiB available memory on the node where the printing process lives
     GPU memory used/free/total (MiB): 1930 / 14350 / 16280
------------------
     ethr =  2.42E-04,  avg # of iterations =  2.9

     negative rho (up, down):  3.007E+00 1.026E+00

     total cpu time spent up to now is      145.1 secs

     total energy              =   -2064.02066413 Ry
     estimated scf accuracy    <       3.77855599 Ry

     total magnetization       =    -0.00 Bohr mag/cell
     absolute magnetization    =     5.08 Bohr mag/cell
[tb_dev] Currently allocated     7.22E+00 Mbytes, locked:    0 /  12
[tb_pin] Currently allocated     0.00E+00 Mbytes, locked:    0 /   0

     iteration # 21     ecut=    30.00 Ry     beta= 0.20
     Davidson diagonalization with overlap

---- Real-time Memory Report at c_bands before calling an iterative solver
          2481 MiB given to the printing process from OS
          1562 MiB allocation reported by mallinfo(arena+hblkhd)
         56887 MiB available memory on the node where the printing process lives
     GPU memory used/free/total (MiB): 1930 / 14350 / 16280
------------------
     ethr =  2.42E-04,  avg # of iterations =  3.1

     negative rho (up, down):  3.023E+00 1.019E+00

     total cpu time spent up to now is      152.1 secs

     total energy              =   -2064.04812871 Ry
     estimated scf accuracy    <       3.51398744 Ry

     total magnetization       =    -0.00 Bohr mag/cell
     absolute magnetization    =     1.93 Bohr mag/cell
[tb_dev] Currently allocated     7.22E+00 Mbytes, locked:    0 /  12
[tb_pin] Currently allocated     0.00E+00 Mbytes, locked:    0 /   0

     iteration # 22     ecut=    30.00 Ry     beta= 0.20
     Davidson diagonalization with overlap

---- Real-time Memory Report at c_bands before calling an iterative solver
          2491 MiB given to the printing process from OS
          1570 MiB allocation reported by mallinfo(arena+hblkhd)
         56852 MiB available memory on the node where the printing process lives
     GPU memory used/free/total (MiB): 1930 / 14350 / 16280
------------------
     ethr =  2.42E-04,  avg # of iterations =  1.0

     negative rho (up, down):  3.056E+00 9.980E-01

     total cpu time spent up to now is      157.6 secs

     total energy              =   -2064.01801055 Ry
     estimated scf accuracy    <       3.27939115 Ry

     total magnetization       =    -0.00 Bohr mag/cell
     absolute magnetization    =     1.79 Bohr mag/cell
[tb_dev] Currently allocated     7.22E+00 Mbytes, locked:    0 /  12
[tb_pin] Currently allocated     0.00E+00 Mbytes, locked:    0 /   0

     iteration # 23     ecut=    30.00 Ry     beta= 0.20
     Davidson diagonalization with overlap

---- Real-time Memory Report at c_bands before calling an iterative solver
          2499 MiB given to the printing process from OS
          1579 MiB allocation reported by mallinfo(arena+hblkhd)
         56849 MiB available memory on the node where the printing process lives
     GPU memory used/free/total (MiB): 1930 / 14350 / 16280
------------------
     ethr =  2.42E-04,  avg # of iterations =  2.0

     negative rho (up, down):  3.041E+00 1.005E+00

     total cpu time spent up to now is      163.7 secs

     total energy              =   -2064.01719472 Ry
     estimated scf accuracy    <       1.99626325 Ry

     total magnetization       =    -0.00 Bohr mag/cell
     absolute magnetization    =     3.14 Bohr mag/cell
[tb_dev] Currently allocated     7.22E+00 Mbytes, locked:    0 /  12
[tb_pin] Currently allocated     0.00E+00 Mbytes, locked:    0 /   0

     iteration # 24     ecut=    30.00 Ry     beta= 0.20
     Davidson diagonalization with overlap

---- Real-time Memory Report at c_bands before calling an iterative solver
          2508 MiB given to the printing process from OS
          1587 MiB allocation reported by mallinfo(arena+hblkhd)
         56844 MiB available memory on the node where the printing process lives
     GPU memory used/free/total (MiB): 1930 / 14350 / 16280
------------------
     ethr =  2.42E-04,  avg # of iterations =  1.4

     negative rho (up, down):  3.056E+00 1.002E+00

     total cpu time spent up to now is      169.4 secs

     total energy              =   -2064.02548259 Ry
     estimated scf accuracy    <       1.22388337 Ry

     total magnetization       =    -0.00 Bohr mag/cell
     absolute magnetization    =     3.41 Bohr mag/cell
[tb_dev] Currently allocated     7.22E+00 Mbytes, locked:    0 /  12
[tb_pin] Currently allocated     0.00E+00 Mbytes, locked:    0 /   0

     iteration # 25     ecut=    30.00 Ry     beta= 0.20
     Davidson diagonalization with overlap

---- Real-time Memory Report at c_bands before calling an iterative solver
          2518 MiB given to the printing process from OS
          1596 MiB allocation reported by mallinfo(arena+hblkhd)
         56833 MiB available memory on the node where the printing process lives
     GPU memory used/free/total (MiB): 1930 / 14350 / 16280
------------------
     ethr =  2.42E-04,  avg # of iterations =  1.0

     negative rho (up, down):  3.073E+00 9.778E-01

     total cpu time spent up to now is      174.9 secs

     total energy              =   -2063.99533360 Ry
     estimated scf accuracy    <       1.28289109 Ry

     total magnetization       =    -0.00 Bohr mag/cell
     absolute magnetization    =     3.76 Bohr mag/cell
[tb_dev] Currently allocated     7.22E+00 Mbytes, locked:    0 /  12
[tb_pin] Currently allocated     0.00E+00 Mbytes, locked:    0 /   0

     iteration # 26     ecut=    30.00 Ry     beta= 0.20
     Davidson diagonalization with overlap

---- Real-time Memory Report at c_bands before calling an iterative solver
          2528 MiB given to the printing process from OS
          1604 MiB allocation reported by mallinfo(arena+hblkhd)
         56828 MiB available memory on the node where the printing process lives
     GPU memory used/free/total (MiB): 1930 / 14350 / 16280
------------------
     ethr =  2.42E-04,  avg # of iterations =  3.1

     negative rho (up, down):  3.016E+00 1.011E+00

     total cpu time spent up to now is      181.5 secs

     total energy              =   -2064.02327754 Ry
     estimated scf accuracy    <       0.38419721 Ry

     total magnetization       =    -0.00 Bohr mag/cell
     absolute magnetization    =     4.71 Bohr mag/cell
[tb_dev] Currently allocated     7.22E+00 Mbytes, locked:    0 /  12
[tb_pin] Currently allocated     0.00E+00 Mbytes, locked:    0 /   0

     iteration # 27     ecut=    30.00 Ry     beta= 0.20
     Davidson diagonalization with overlap

---- Real-time Memory Report at c_bands before calling an iterative solver
          2538 MiB given to the printing process from OS
          1613 MiB allocation reported by mallinfo(arena+hblkhd)
         56824 MiB available memory on the node where the printing process lives
     GPU memory used/free/total (MiB): 1930 / 14350 / 16280
------------------
     ethr =  2.42E-04,  avg # of iterations =  1.2

     negative rho (up, down):  3.057E+00 9.826E-01

     total cpu time spent up to now is      187.1 secs

     total energy              =   -2064.00102928 Ry
     estimated scf accuracy    <       0.62223699 Ry

     total magnetization       =    -0.00 Bohr mag/cell
     absolute magnetization    =     4.61 Bohr mag/cell
[tb_dev] Currently allocated     7.22E+00 Mbytes, locked:    0 /  12
[tb_pin] Currently allocated     0.00E+00 Mbytes, locked:    0 /   0

     iteration # 28     ecut=    30.00 Ry     beta= 0.20
     Davidson diagonalization with overlap

---- Real-time Memory Report at c_bands before calling an iterative solver
          2547 MiB given to the printing process from OS
          1621 MiB allocation reported by mallinfo(arena+hblkhd)
         56817 MiB available memory on the node where the printing process lives
     GPU memory used/free/total (MiB): 1930 / 14350 / 16280
------------------
     ethr =  2.42E-04,  avg # of iterations =  2.5

     negative rho (up, down):  3.030E+00 9.997E-01

     total cpu time spent up to now is      193.5 secs

     total energy              =   -2064.01888399 Ry
     estimated scf accuracy    <       0.27046075 Ry

     total magnetization       =    -0.00 Bohr mag/cell
     absolute magnetization    =     5.57 Bohr mag/cell
[tb_dev] Currently allocated     7.22E+00 Mbytes, locked:    0 /  12
[tb_pin] Currently allocated     0.00E+00 Mbytes, locked:    0 /   0

     iteration # 29     ecut=    30.00 Ry     beta= 0.20
     Davidson diagonalization with overlap

---- Real-time Memory Report at c_bands before calling an iterative solver
          2555 MiB given to the printing process from OS
          1629 MiB allocation reported by mallinfo(arena+hblkhd)
         56807 MiB available memory on the node where the printing process lives
     GPU memory used/free/total (MiB): 1930 / 14350 / 16280
------------------
     ethr =  2.42E-04,  avg # of iterations =  1.2

     negative rho (up, down):  3.020E+00 1.009E+00

     total cpu time spent up to now is      199.1 secs

     total energy              =   -2064.01253216 Ry
     estimated scf accuracy    <       0.18036307 Ry

     total magnetization       =    -0.00 Bohr mag/cell
     absolute magnetization    =     5.50 Bohr mag/cell
[tb_dev] Currently allocated     7.22E+00 Mbytes, locked:    0 /  12
[tb_pin] Currently allocated     0.00E+00 Mbytes, locked:    0 /   0

     iteration # 30     ecut=    30.00 Ry     beta= 0.20
     Davidson diagonalization with overlap

---- Real-time Memory Report at c_bands before calling an iterative solver
          2564 MiB given to the printing process from OS
          1638 MiB allocation reported by mallinfo(arena+hblkhd)
         56800 MiB available memory on the node where the printing process lives
     GPU memory used/free/total (MiB): 1930 / 14350 / 16280
------------------
     ethr =  1.88E-04,  avg # of iterations =  1.5

     negative rho (up, down):  3.023E+00 1.005E+00

     total cpu time spent up to now is      205.1 secs

     total energy              =   -2064.01605921 Ry
     estimated scf accuracy    <       0.04599782 Ry

     total magnetization       =    -0.00 Bohr mag/cell
     absolute magnetization    =     4.73 Bohr mag/cell
[tb_dev] Currently allocated     7.22E+00 Mbytes, locked:    0 /  12
[tb_pin] Currently allocated     0.00E+00 Mbytes, locked:    0 /   0

     iteration # 31     ecut=    30.00 Ry     beta= 0.20
     Davidson diagonalization with overlap

---- Real-time Memory Report at c_bands before calling an iterative solver
          2572 MiB given to the printing process from OS
          1649 MiB allocation reported by mallinfo(arena+hblkhd)
         56791 MiB available memory on the node where the printing process lives
     GPU memory used/free/total (MiB): 1930 / 14350 / 16280
------------------
     ethr =  4.79E-05,  avg # of iterations =  1.0

     negative rho (up, down):  2.981E+00 1.038E+00

     total cpu time spent up to now is      210.6 secs

     total energy              =   -2064.01947874 Ry
     estimated scf accuracy    <       0.02622925 Ry

     total magnetization       =    -0.00 Bohr mag/cell
     absolute magnetization    =     4.91 Bohr mag/cell
[tb_dev] Currently allocated     7.22E+00 Mbytes, locked:    0 /  12
[tb_pin] Currently allocated     0.00E+00 Mbytes, locked:    0 /   0

     iteration # 32     ecut=    30.00 Ry     beta= 0.20
     Davidson diagonalization with overlap

---- Real-time Memory Report at c_bands before calling an iterative solver
          2583 MiB given to the printing process from OS
          1657 MiB allocation reported by mallinfo(arena+hblkhd)
         56785 MiB available memory on the node where the printing process lives
     GPU memory used/free/total (MiB): 1930 / 14350 / 16280
------------------
     ethr =  2.73E-05,  avg # of iterations =  2.6

     negative rho (up, down):  3.016E+00 1.015E+00

     total cpu time spent up to now is      217.1 secs

     total energy              =   -2064.02411417 Ry
     estimated scf accuracy    <       0.10425402 Ry

     total magnetization       =    -0.00 Bohr mag/cell
     absolute magnetization    =     4.32 Bohr mag/cell
[tb_dev] Currently allocated     7.22E+00 Mbytes, locked:    0 /  12
[tb_pin] Currently allocated     0.00E+00 Mbytes, locked:    0 /   0

     iteration # 33     ecut=    30.00 Ry     beta= 0.20
     Davidson diagonalization with overlap

---- Real-time Memory Report at c_bands before calling an iterative solver
          2591 MiB given to the printing process from OS
          1665 MiB allocation reported by mallinfo(arena+hblkhd)
         56776 MiB available memory on the node where the printing process lives
     GPU memory used/free/total (MiB): 1930 / 14350 / 16280
------------------
     ethr =  2.73E-05,  avg # of iterations =  4.6

     negative rho (up, down):  2.980E+00 1.038E+00

     total cpu time spent up to now is      225.0 secs

     total energy              =   -2064.02510375 Ry
     estimated scf accuracy    <       1.98026357 Ry

     total magnetization       =    -0.00 Bohr mag/cell
     absolute magnetization    =     1.53 Bohr mag/cell
[tb_dev] Currently allocated     7.22E+00 Mbytes, locked:    0 /  12
[tb_pin] Currently allocated     0.00E+00 Mbytes, locked:    0 /   0

     iteration # 34     ecut=    30.00 Ry     beta= 0.20
     Davidson diagonalization with overlap

---- Real-time Memory Report at c_bands before calling an iterative solver
          2599 MiB given to the printing process from OS
          1675 MiB allocation reported by mallinfo(arena+hblkhd)
         56765 MiB available memory on the node where the printing process lives
     GPU memory used/free/total (MiB): 1930 / 14350 / 16280
------------------
     ethr =  2.73E-05,  avg # of iterations =  4.0

     negative rho (up, down):  3.039E+00 9.894E-01

     total cpu time spent up to now is      232.3 secs

     total energy              =   -2063.99972557 Ry
     estimated scf accuracy    <       0.79517283 Ry

     total magnetization       =    -0.00 Bohr mag/cell
     absolute magnetization    =     2.65 Bohr mag/cell
[tb_dev] Currently allocated     7.22E+00 Mbytes, locked:    0 /  12
[tb_pin] Currently allocated     0.00E+00 Mbytes, locked:    0 /   0

     iteration # 35     ecut=    30.00 Ry     beta= 0.20
     Davidson diagonalization with overlap

---- Real-time Memory Report at c_bands before calling an iterative solver
          2610 MiB given to the printing process from OS
          1685 MiB allocation reported by mallinfo(arena+hblkhd)
         56760 MiB available memory on the node where the printing process lives
     GPU memory used/free/total (MiB): 1930 / 14350 / 16280
------------------
     ethr =  2.73E-05,  avg # of iterations =  3.5

     negative rho (up, down):  3.016E+00 1.009E+00

     total cpu time spent up to now is      239.4 secs

     total energy              =   -2064.01553820 Ry
     estimated scf accuracy    <       0.11289092 Ry

     total magnetization       =    -0.00 Bohr mag/cell
     absolute magnetization    =     5.18 Bohr mag/cell
[tb_dev] Currently allocated     7.22E+00 Mbytes, locked:    0 /  12
[tb_pin] Currently allocated     0.00E+00 Mbytes, locked:    0 /   0

     iteration # 36     ecut=    30.00 Ry     beta= 0.20
     Davidson diagonalization with overlap

---- Real-time Memory Report at c_bands before calling an iterative solver
          2618 MiB given to the printing process from OS
          1694 MiB allocation reported by mallinfo(arena+hblkhd)
         56753 MiB available memory on the node where the printing process lives
     GPU memory used/free/total (MiB): 1930 / 14350 / 16280
------------------
     ethr =  2.73E-05,  avg # of iterations =  2.5

     negative rho (up, down):  3.055E+00 9.810E-01

     total cpu time spent up to now is      245.8 secs

     total energy              =   -2064.01126810 Ry
     estimated scf accuracy    <       0.22248313 Ry

     total magnetization       =    -0.00 Bohr mag/cell
     absolute magnetization    =     3.86 Bohr mag/cell
[tb_dev] Currently allocated     7.22E+00 Mbytes, locked:    0 /  12
[tb_pin] Currently allocated     0.00E+00 Mbytes, locked:    0 /   0

     iteration # 37     ecut=    30.00 Ry     beta= 0.20
     Davidson diagonalization with overlap

---- Real-time Memory Report at c_bands before calling an iterative solver
          2627 MiB given to the printing process from OS
          1703 MiB allocation reported by mallinfo(arena+hblkhd)
         56740 MiB available memory on the node where the printing process lives
     GPU memory used/free/total (MiB): 1930 / 14350 / 16280
------------------
     ethr =  2.73E-05,  avg # of iterations =  4.0

     negative rho (up, down):  3.051E+00 9.837E-01

     total cpu time spent up to now is      253.1 secs

     total energy              =   -2064.01533755 Ry
     estimated scf accuracy    <       0.08780636 Ry

     total magnetization       =    -0.00 Bohr mag/cell
     absolute magnetization    =     5.12 Bohr mag/cell
[tb_dev] Currently allocated     7.22E+00 Mbytes, locked:    0 /  12
[tb_pin] Currently allocated     0.00E+00 Mbytes, locked:    0 /   0

     iteration # 38     ecut=    30.00 Ry     beta= 0.20
     Davidson diagonalization with overlap

---- Real-time Memory Report at c_bands before calling an iterative solver
          2637 MiB given to the printing process from OS
          1721 MiB allocation reported by mallinfo(arena+hblkhd)
         56724 MiB available memory on the node where the printing process lives
     GPU memory used/free/total (MiB): 1930 / 14350 / 16280
------------------
     ethr =  2.73E-05,  avg # of iterations =  1.0

     negative rho (up, down):  3.047E+00 9.836E-01

     total cpu time spent up to now is      258.6 secs

     total energy              =   -2064.01478447 Ry
     estimated scf accuracy    <       0.06370897 Ry

     total magnetization       =    -0.00 Bohr mag/cell
     absolute magnetization    =     5.09 Bohr mag/cell
[tb_dev] Currently allocated     7.22E+00 Mbytes, locked:    0 /  12
[tb_pin] Currently allocated     0.00E+00 Mbytes, locked:    0 /   0

     iteration # 39     ecut=    30.00 Ry     beta= 0.20
     Davidson diagonalization with overlap

---- Real-time Memory Report at c_bands before calling an iterative solver
          2647 MiB given to the printing process from OS
          1729 MiB allocation reported by mallinfo(arena+hblkhd)
         56716 MiB available memory on the node where the printing process lives
     GPU memory used/free/total (MiB): 1930 / 14350 / 16280
------------------
     ethr =  2.73E-05,  avg # of iterations =  1.9

     negative rho (up, down):  3.055E+00 9.769E-01

     total cpu time spent up to now is      264.5 secs

     total energy              =   -2064.01429688 Ry
     estimated scf accuracy    <       0.02805607 Ry

     total magnetization       =    -0.00 Bohr mag/cell
     absolute magnetization    =     4.99 Bohr mag/cell
[tb_dev] Currently allocated     7.22E+00 Mbytes, locked:    0 /  12
[tb_pin] Currently allocated     0.00E+00 Mbytes, locked:    0 /   0

     iteration # 40     ecut=    30.00 Ry     beta= 0.20
     Davidson diagonalization with overlap

---- Real-time Memory Report at c_bands before calling an iterative solver
          2655 MiB given to the printing process from OS
          1738 MiB allocation reported by mallinfo(arena+hblkhd)
         56710 MiB available memory on the node where the printing process lives
     GPU memory used/free/total (MiB): 1930 / 14350 / 16280
------------------
     ethr =  2.73E-05,  avg # of iterations =  1.4

     negative rho (up, down):  3.060E+00 9.716E-01

     total cpu time spent up to now is      270.2 secs

     total energy              =   -2064.01392548 Ry
     estimated scf accuracy    <       0.03819236 Ry

     total magnetization       =    -0.00 Bohr mag/cell
     absolute magnetization    =     4.84 Bohr mag/cell
[tb_dev] Currently allocated     7.22E+00 Mbytes, locked:    0 /  12
[tb_pin] Currently allocated     0.00E+00 Mbytes, locked:    0 /   0

     iteration # 41     ecut=    30.00 Ry     beta= 0.20
     Davidson diagonalization with overlap

---- Real-time Memory Report at c_bands before calling an iterative solver
          2663 MiB given to the printing process from OS
          1746 MiB allocation reported by mallinfo(arena+hblkhd)
         56702 MiB available memory on the node where the printing process lives
     GPU memory used/free/total (MiB): 1930 / 14350 / 16280
------------------
     ethr =  2.73E-05,  avg # of iterations =  1.1

     negative rho (up, down):  3.058E+00 9.743E-01

     total cpu time spent up to now is      275.7 secs

     total energy              =   -2064.01461840 Ry
     estimated scf accuracy    <       0.06428655 Ry

     total magnetization       =    -0.00 Bohr mag/cell
     absolute magnetization    =     4.68 Bohr mag/cell
[tb_dev] Currently allocated     7.22E+00 Mbytes, locked:    0 /  12
[tb_pin] Currently allocated     0.00E+00 Mbytes, locked:    0 /   0

     iteration # 42     ecut=    30.00 Ry     beta= 0.20
     Davidson diagonalization with overlap

---- Real-time Memory Report at c_bands before calling an iterative solver
          2673 MiB given to the printing process from OS
          1755 MiB allocation reported by mallinfo(arena+hblkhd)
         56689 MiB available memory on the node where the printing process lives
     GPU memory used/free/total (MiB): 1930 / 14350 / 16280
------------------
     ethr =  2.73E-05,  avg # of iterations =  1.0

     negative rho (up, down):  3.058E+00 9.739E-01

     total cpu time spent up to now is      281.2 secs

     total energy              =   -2064.01472156 Ry
     estimated scf accuracy    <       0.06811404 Ry

     total magnetization       =    -0.00 Bohr mag/cell
     absolute magnetization    =     4.65 Bohr mag/cell
[tb_dev] Currently allocated     7.22E+00 Mbytes, locked:    0 /  12
[tb_pin] Currently allocated     0.00E+00 Mbytes, locked:    0 /   0

     iteration # 43     ecut=    30.00 Ry     beta= 0.20
     Davidson diagonalization with overlap

---- Real-time Memory Report at c_bands before calling an iterative solver
          2683 MiB given to the printing process from OS
          1763 MiB allocation reported by mallinfo(arena+hblkhd)
         56684 MiB available memory on the node where the printing process lives
     GPU memory used/free/total (MiB): 1930 / 14350 / 16280
------------------
     ethr =  2.73E-05,  avg # of iterations =  1.0

     negative rho (up, down):  3.078E+00 9.576E-01

     total cpu time spent up to now is      286.7 secs

     total energy              =   -2064.01142992 Ry
     estimated scf accuracy    <       0.07115146 Ry

     total magnetization       =    -0.00 Bohr mag/cell
     absolute magnetization    =     4.64 Bohr mag/cell
[tb_dev] Currently allocated     7.22E+00 Mbytes, locked:    0 /  12
[tb_pin] Currently allocated     0.00E+00 Mbytes, locked:    0 /   0

     iteration # 44     ecut=    30.00 Ry     beta= 0.20
     Davidson diagonalization with overlap

---- Real-time Memory Report at c_bands before calling an iterative solver
          2691 MiB given to the printing process from OS
          1772 MiB allocation reported by mallinfo(arena+hblkhd)
         56674 MiB available memory on the node where the printing process lives
     GPU memory used/free/total (MiB): 1930 / 14350 / 16280
------------------
     ethr =  2.73E-05,  avg # of iterations =  1.8

     negative rho (up, down):  3.083E+00 9.532E-01

     total cpu time spent up to now is      292.7 secs

     total energy              =   -2064.01282890 Ry
     estimated scf accuracy    <       0.15715997 Ry

     total magnetization       =    -0.00 Bohr mag/cell
     absolute magnetization    =     4.54 Bohr mag/cell
[tb_dev] Currently allocated     7.22E+00 Mbytes, locked:    0 /  12
[tb_pin] Currently allocated     0.00E+00 Mbytes, locked:    0 /   0

     iteration # 45     ecut=    30.00 Ry     beta= 0.20
     Davidson diagonalization with overlap

---- Real-time Memory Report at c_bands before calling an iterative solver
          2700 MiB given to the printing process from OS
          1780 MiB allocation reported by mallinfo(arena+hblkhd)
         56667 MiB available memory on the node where the printing process lives
     GPU memory used/free/total (MiB): 1930 / 14350 / 16280
------------------
     ethr =  2.73E-05,  avg # of iterations =  1.0

     negative rho (up, down):  3.036E+00 9.988E-01

     total cpu time spent up to now is      298.2 secs

     total energy              =   -2064.00879013 Ry
     estimated scf accuracy    <       0.23432788 Ry

     total magnetization       =    -0.00 Bohr mag/cell
     absolute magnetization    =     4.32 Bohr mag/cell
[tb_dev] Currently allocated     7.22E+00 Mbytes, locked:    0 /  12
[tb_pin] Currently allocated     0.00E+00 Mbytes, locked:    0 /   0

     iteration # 46     ecut=    30.00 Ry     beta= 0.20
     Davidson diagonalization with overlap

---- Real-time Memory Report at c_bands before calling an iterative solver
          2708 MiB given to the printing process from OS
          1788 MiB allocation reported by mallinfo(arena+hblkhd)
         56660 MiB available memory on the node where the printing process lives
     GPU memory used/free/total (MiB): 1930 / 14350 / 16280
------------------
     ethr =  2.73E-05,  avg # of iterations =  2.6

     negative rho (up, down):  3.027E+00 1.014E+00

     total cpu time spent up to now is      304.6 secs

     total energy              =   -2064.01267084 Ry
     estimated scf accuracy    <       0.03795491 Ry

     total magnetization       =    -0.00 Bohr mag/cell
     absolute magnetization    =     4.79 Bohr mag/cell
[tb_dev] Currently allocated     7.22E+00 Mbytes, locked:    0 /  12
[tb_pin] Currently allocated     0.00E+00 Mbytes, locked:    0 /   0

     iteration # 47     ecut=    30.00 Ry     beta= 0.20
     Davidson diagonalization with overlap

---- Real-time Memory Report at c_bands before calling an iterative solver
          2718 MiB given to the printing process from OS
          1797 MiB allocation reported by mallinfo(arena+hblkhd)
         56649 MiB available memory on the node where the printing process lives
     GPU memory used/free/total (MiB): 1930 / 14350 / 16280
------------------
     ethr =  2.73E-05,  avg # of iterations =  2.6

     negative rho (up, down):  3.013E+00 1.020E+00

     total cpu time spent up to now is      311.0 secs

     total energy              =   -2064.00783838 Ry
     estimated scf accuracy    <       0.06492231 Ry

     total magnetization       =    -0.00 Bohr mag/cell
     absolute magnetization    =     4.77 Bohr mag/cell
[tb_dev] Currently allocated     7.22E+00 Mbytes, locked:    0 /  12
[tb_pin] Currently allocated     0.00E+00 Mbytes, locked:    0 /   0

     iteration # 48     ecut=    30.00 Ry     beta= 0.20
     Davidson diagonalization with overlap

---- Real-time Memory Report at c_bands before calling an iterative solver
          2727 MiB given to the printing process from OS
          1805 MiB allocation reported by mallinfo(arena+hblkhd)
         56642 MiB available memory on the node where the printing process lives
     GPU memory used/free/total (MiB): 1930 / 14350 / 16280
------------------
     ethr =  2.73E-05,  avg # of iterations =  2.5

     negative rho (up, down):  3.035E+00 9.899E-01

     total cpu time spent up to now is      317.3 secs

     total energy              =   -2064.01382893 Ry
     estimated scf accuracy    <       0.02579816 Ry

     total magnetization       =    -0.00 Bohr mag/cell
     absolute magnetization    =     5.52 Bohr mag/cell
[tb_dev] Currently allocated     7.22E+00 Mbytes, locked:    0 /  12
[tb_pin] Currently allocated     0.00E+00 Mbytes, locked:    0 /   0

     iteration # 49     ecut=    30.00 Ry     beta= 0.20
     Davidson diagonalization with overlap

---- Real-time Memory Report at c_bands before calling an iterative solver
          2737 MiB given to the printing process from OS
          1816 MiB allocation reported by mallinfo(arena+hblkhd)
         56633 MiB available memory on the node where the printing process lives
     GPU memory used/free/total (MiB): 1930 / 14350 / 16280
------------------
     ethr =  2.69E-05,  avg # of iterations =  1.7

     negative rho (up, down):  3.040E+00 9.854E-01

     total cpu time spent up to now is      323.4 secs

     total energy              =   -2064.01503390 Ry
     estimated scf accuracy    <       0.01360612 Ry

     total magnetization       =    -0.00 Bohr mag/cell
     absolute magnetization    =     5.15 Bohr mag/cell
[tb_dev] Currently allocated     7.22E+00 Mbytes, locked:    0 /  12
[tb_pin] Currently allocated     0.00E+00 Mbytes, locked:    0 /   0

     iteration # 50     ecut=    30.00 Ry     beta= 0.20
     Davidson diagonalization with overlap

---- Real-time Memory Report at c_bands before calling an iterative solver
          2746 MiB given to the printing process from OS
          1825 MiB allocation reported by mallinfo(arena+hblkhd)
         56623 MiB available memory on the node where the printing process lives
     GPU memory used/free/total (MiB): 1930 / 14350 / 16280
------------------
     ethr =  1.42E-05,  avg # of iterations =  1.2

     negative rho (up, down):  3.041E+00 9.855E-01

     total cpu time spent up to now is      329.1 secs

     total energy              =   -2064.01444596 Ry
     estimated scf accuracy    <       0.01939886 Ry

     total magnetization       =    -0.00 Bohr mag/cell
     absolute magnetization    =     5.04 Bohr mag/cell
[tb_dev] Currently allocated     7.22E+00 Mbytes, locked:    0 /  12
[tb_pin] Currently allocated     0.00E+00 Mbytes, locked:    0 /   0

     iteration # 51     ecut=    30.00 Ry     beta= 0.20
     Davidson diagonalization with overlap

---- Real-time Memory Report at c_bands before calling an iterative solver
          2756 MiB given to the printing process from OS
          1833 MiB allocation reported by mallinfo(arena+hblkhd)
         56614 MiB available memory on the node where the printing process lives
     GPU memory used/free/total (MiB): 1930 / 14350 / 16280
------------------
     ethr =  1.42E-05,  avg # of iterations =  1.4

     negative rho (up, down):  3.039E+00 9.903E-01

     total cpu time spent up to now is      334.9 secs

     total energy              =   -2064.01158000 Ry
     estimated scf accuracy    <       0.02587730 Ry

     total magnetization       =    -0.00 Bohr mag/cell
     absolute magnetization    =     5.03 Bohr mag/cell
[tb_dev] Currently allocated     7.22E+00 Mbytes, locked:    0 /  12
[tb_pin] Currently allocated     0.00E+00 Mbytes, locked:    0 /   0

     iteration # 52     ecut=    30.00 Ry     beta= 0.20
     Davidson diagonalization with overlap

---- Real-time Memory Report at c_bands before calling an iterative solver
          2765 MiB given to the printing process from OS
          1844 MiB allocation reported by mallinfo(arena+hblkhd)
         56602 MiB available memory on the node where the printing process lives
     GPU memory used/free/total (MiB): 1930 / 14350 / 16280
------------------
     ethr =  1.42E-05,  avg # of iterations =  1.0

     negative rho (up, down):  3.042E+00 9.866E-01

     total cpu time spent up to now is      340.4 secs

     total energy              =   -2064.01130968 Ry
     estimated scf accuracy    <       0.02595706 Ry

     total magnetization       =    -0.00 Bohr mag/cell
     absolute magnetization    =     5.06 Bohr mag/cell
[tb_dev] Currently allocated     7.22E+00 Mbytes, locked:    0 /  12
[tb_pin] Currently allocated     0.00E+00 Mbytes, locked:    0 /   0

     iteration # 53     ecut=    30.00 Ry     beta= 0.20
     Davidson diagonalization with overlap

---- Real-time Memory Report at c_bands before calling an iterative solver
          2773 MiB given to the printing process from OS
          1853 MiB allocation reported by mallinfo(arena+hblkhd)
         56598 MiB available memory on the node where the printing process lives
     GPU memory used/free/total (MiB): 1930 / 14350 / 16280
------------------
     ethr =  1.42E-05,  avg # of iterations =  2.9

     negative rho (up, down):  3.025E+00 9.937E-01

     total cpu time spent up to now is      347.0 secs

     total energy              =   -2064.01211675 Ry
     estimated scf accuracy    <       0.15637591 Ry

     total magnetization       =    -0.00 Bohr mag/cell
     absolute magnetization    =     5.96 Bohr mag/cell
[tb_dev] Currently allocated     7.22E+00 Mbytes, locked:    0 /  12
[tb_pin] Currently allocated     0.00E+00 Mbytes, locked:    0 /   0

     iteration # 54     ecut=    30.00 Ry     beta= 0.20
     Davidson diagonalization with overlap

---- Real-time Memory Report at c_bands before calling an iterative solver
          2784 MiB given to the printing process from OS
          1861 MiB allocation reported by mallinfo(arena+hblkhd)
         56587 MiB available memory on the node where the printing process lives
     GPU memory used/free/total (MiB): 1930 / 14350 / 16280
------------------
     ethr =  1.42E-05,  avg # of iterations =  2.5

     negative rho (up, down):  3.050E+00 9.873E-01

     total cpu time spent up to now is      353.5 secs

     total energy              =   -2064.01288543 Ry
     estimated scf accuracy    <       0.05817266 Ry

     total magnetization       =    -0.00 Bohr mag/cell
     absolute magnetization    =     4.87 Bohr mag/cell
[tb_dev] Currently allocated     7.22E+00 Mbytes, locked:    0 /  12
[tb_pin] Currently allocated     0.00E+00 Mbytes, locked:    0 /   0

     iteration # 55     ecut=    30.00 Ry     beta= 0.20
     Davidson diagonalization with overlap

---- Real-time Memory Report at c_bands before calling an iterative solver
          2792 MiB given to the printing process from OS
          1870 MiB allocation reported by mallinfo(arena+hblkhd)
         56577 MiB available memory on the node where the printing process lives
     GPU memory used/free/total (MiB): 1930 / 14350 / 16280
------------------
     ethr =  1.42E-05,  avg # of iterations =  1.9

     negative rho (up, down):  3.054E+00 1.010E+00

     total cpu time spent up to now is      359.6 secs

     total energy              =   -2064.00598923 Ry
     estimated scf accuracy    <       0.03405403 Ry

     total magnetization       =    -0.00 Bohr mag/cell
     absolute magnetization    =     4.92 Bohr mag/cell
[tb_dev] Currently allocated     7.22E+00 Mbytes, locked:    0 /  12
[tb_pin] Currently allocated     0.00E+00 Mbytes, locked:    0 /   0

     iteration # 56     ecut=    30.00 Ry     beta= 0.20
     Davidson diagonalization with overlap

---- Real-time Memory Report at c_bands before calling an iterative solver
          2801 MiB given to the printing process from OS
          1878 MiB allocation reported by mallinfo(arena+hblkhd)
         56572 MiB available memory on the node where the printing process lives
     GPU memory used/free/total (MiB): 1930 / 14350 / 16280
------------------
     ethr =  1.42E-05,  avg # of iterations =  4.2

     negative rho (up, down):  3.075E+00 9.942E-01

     total cpu time spent up to now is      367.1 secs

     total energy              =   -2064.00343659 Ry
     estimated scf accuracy    <       0.26320628 Ry

     total magnetization       =    -0.00 Bohr mag/cell
     absolute magnetization    =     4.24 Bohr mag/cell
[tb_dev] Currently allocated     7.22E+00 Mbytes, locked:    0 /  12
[tb_pin] Currently allocated     0.00E+00 Mbytes, locked:    0 /   0

     iteration # 57     ecut=    30.00 Ry     beta= 0.20
     Davidson diagonalization with overlap

---- Real-time Memory Report at c_bands before calling an iterative solver
          2810 MiB given to the printing process from OS
          1886 MiB allocation reported by mallinfo(arena+hblkhd)
         56564 MiB available memory on the node where the printing process lives
     GPU memory used/free/total (MiB): 1930 / 14350 / 16280
------------------
     ethr =  1.42E-05,  avg # of iterations =  2.5

     negative rho (up, down):  3.046E+00 1.009E+00

     total cpu time spent up to now is      373.5 secs

     total energy              =   -2064.01130024 Ry
     estimated scf accuracy    <       0.04763934 Ry

     total magnetization       =    -0.00 Bohr mag/cell
     absolute magnetization    =     5.03 Bohr mag/cell
[tb_dev] Currently allocated     7.22E+00 Mbytes, locked:    0 /  12
[tb_pin] Currently allocated     0.00E+00 Mbytes, locked:    0 /   0

     iteration # 58     ecut=    30.00 Ry     beta= 0.20
     Davidson diagonalization with overlap

---- Real-time Memory Report at c_bands before calling an iterative solver
          2820 MiB given to the printing process from OS
          1905 MiB allocation reported by mallinfo(arena+hblkhd)
         56543 MiB available memory on the node where the printing process lives
     GPU memory used/free/total (MiB): 1930 / 14350 / 16280
------------------
     ethr =  1.42E-05,  avg # of iterations =  1.6

     negative rho (up, down):  3.037E+00 1.009E+00

     total cpu time spent up to now is      379.4 secs

     total energy              =   -2064.01183515 Ry
     estimated scf accuracy    <       0.07168748 Ry

     total magnetization       =    -0.00 Bohr mag/cell
     absolute magnetization    =     5.03 Bohr mag/cell
[tb_dev] Currently allocated     7.22E+00 Mbytes, locked:    0 /  12
[tb_pin] Currently allocated     0.00E+00 Mbytes, locked:    0 /   0

     iteration # 59     ecut=    30.00 Ry     beta= 0.20
     Davidson diagonalization with overlap

---- Real-time Memory Report at c_bands before calling an iterative solver
          2829 MiB given to the printing process from OS
          1913 MiB allocation reported by mallinfo(arena+hblkhd)
         56537 MiB available memory on the node where the printing process lives
     GPU memory used/free/total (MiB): 1930 / 14350 / 16280
------------------
     ethr =  1.42E-05,  avg # of iterations =  2.0

     negative rho (up, down):  3.038E+00 1.006E+00

     total cpu time spent up to now is      385.5 secs

     total energy              =   -2064.01215318 Ry
     estimated scf accuracy    <       0.07853597 Ry

     total magnetization       =    -0.00 Bohr mag/cell
     absolute magnetization    =     4.87 Bohr mag/cell
[tb_dev] Currently allocated     7.22E+00 Mbytes, locked:    0 /  12
[tb_pin] Currently allocated     0.00E+00 Mbytes, locked:    0 /   0

     iteration # 60     ecut=    30.00 Ry     beta= 0.20
     Davidson diagonalization with overlap

---- Real-time Memory Report at c_bands before calling an iterative solver
          2839 MiB given to the printing process from OS
          1922 MiB allocation reported by mallinfo(arena+hblkhd)
         56527 MiB available memory on the node where the printing process lives
     GPU memory used/free/total (MiB): 1930 / 14350 / 16280
------------------
     ethr =  1.42E-05,  avg # of iterations =  1.1

     negative rho (up, down):  3.039E+00 1.004E+00

     total cpu time spent up to now is      391.1 secs

     total energy              =   -2064.01207156 Ry
     estimated scf accuracy    <       0.09246878 Ry

     total magnetization       =    -0.00 Bohr mag/cell
     absolute magnetization    =     4.70 Bohr mag/cell
[tb_dev] Currently allocated     7.22E+00 Mbytes, locked:    0 /  12
[tb_pin] Currently allocated     0.00E+00 Mbytes, locked:    0 /   0

     iteration # 61     ecut=    30.00 Ry     beta= 0.20
     Davidson diagonalization with overlap

[...]
     GPU memory used/free/total (MiB): 1930 / 14350 / 16280
------------------
     ethr =  6.35E-06,  avg # of iterations =  1.5

     negative rho (up, down):  3.046E+00 1.000E+00

     total cpu time spent up to now is      420.9 secs

     total energy              =   -2064.01188468 Ry
     estimated scf accuracy    <       0.04676036 Ry

     total magnetization       =    -0.00 Bohr mag/cell
     absolute magnetization    =     4.92 Bohr mag/cell
[tb_dev] Currently allocated     7.22E+00 Mbytes, locked:    0 /  12
[tb_pin] Currently allocated     0.00E+00 Mbytes, locked:    0 /   0

     iteration # 66     ecut=    30.00 Ry     beta= 0.20
     Davidson diagonalization with overlap

---- Real-time Memory Report at c_bands before calling an iterative solver
          2897 MiB given to the printing process from OS
          1975 MiB allocation reported by mallinfo(arena+hblkhd)
         56474 MiB available memory on the node where the printing process lives
     GPU memory used/free/total (MiB): 1930 / 14350 / 16280
------------------
     ethr =  6.35E-06,  avg # of iterations =  1.0

     negative rho (up, down):  3.057E+00 9.951E-01

     total cpu time spent up to now is      426.4 secs

     total energy              =   -2064.01076967 Ry
     estimated scf accuracy    <       0.05688915 Ry

     total magnetization       =    -0.00 Bohr mag/cell
     absolute magnetization    =     4.81 Bohr mag/cell
[tb_dev] Currently allocated     7.22E+00 Mbytes, locked:    0 /  12
[tb_pin] Currently allocated     0.00E+00 Mbytes, locked:    0 /   0

     iteration # 67     ecut=    30.00 Ry     beta= 0.20
     Davidson diagonalization with overlap

---- Real-time Memory Report at c_bands before calling an iterative solver
          2905 MiB given to the printing process from OS
          1983 MiB allocation reported by mallinfo(arena+hblkhd)
         56468 MiB available memory on the node where the printing process lives
     GPU memory used/free/total (MiB): 1930 / 14350 / 16280
------------------
     ethr =  6.35E-06,  avg # of iterations =  1.5

     negative rho (up, down):  3.059E+00 9.959E-01

     total cpu time spent up to now is      432.2 secs

     total energy              =   -2064.01083262 Ry
     estimated scf accuracy    <       0.03996735 Ry

     total magnetization       =    -0.00 Bohr mag/cell
     absolute magnetization    =     4.93 Bohr mag/cell
[tb_dev] Currently allocated     7.22E+00 Mbytes, locked:    0 /  12
[tb_pin] Currently allocated     0.00E+00 Mbytes, locked:    0 /   0

     iteration # 68     ecut=    30.00 Ry     beta= 0.20
     Davidson diagonalization with overlap

---- Real-time Memory Report at c_bands before calling an iterative solver
          2915 MiB given to the printing process from OS
          1992 MiB allocation reported by mallinfo(arena+hblkhd)
         56457 MiB available memory on the node where the printing process lives
     GPU memory used/free/total (MiB): 1930 / 14350 / 16280
------------------
     ethr =  6.35E-06,  avg # of iterations =  1.3

     negative rho (up, down):  3.082E+00 9.826E-01

     total cpu time spent up to now is      437.9 secs

     total energy              =   -2064.01423722 Ry
     estimated scf accuracy    <       0.03316622 Ry

     total magnetization       =    -0.00 Bohr mag/cell
     absolute magnetization    =     5.03 Bohr mag/cell
[tb_dev] Currently allocated     7.22E+00 Mbytes, locked:    0 /  12
[tb_pin] Currently allocated     0.00E+00 Mbytes, locked:    0 /   0

     iteration # 69     ecut=    30.00 Ry     beta= 0.20
     Davidson diagonalization with overlap

---- Real-time Memory Report at c_bands before calling an iterative solver
          2924 MiB given to the printing process from OS
          2000 MiB allocation reported by mallinfo(arena+hblkhd)
         56449 MiB available memory on the node where the printing process lives
     GPU memory used/free/total (MiB): 1930 / 14350 / 16280
------------------
     ethr =  6.35E-06,  avg # of iterations =  3.1

     negative rho (up, down):  3.069E+00 9.916E-01

     total cpu time spent up to now is      444.5 secs

     total energy              =   -2064.01077398 Ry
     estimated scf accuracy    <       0.06899239 Ry

     total magnetization       =    -0.00 Bohr mag/cell
     absolute magnetization    =     5.38 Bohr mag/cell
[tb_dev] Currently allocated     7.22E+00 Mbytes, locked:    0 /  12
[tb_pin] Currently allocated     0.00E+00 Mbytes, locked:    0 /   0

     iteration # 70     ecut=    30.00 Ry     beta= 0.20
     Davidson diagonalization with overlap

---- Real-time Memory Report at c_bands before calling an iterative solver
          2933 MiB given to the printing process from OS
          2009 MiB allocation reported by mallinfo(arena+hblkhd)
         56440 MiB available memory on the node where the printing process lives
     GPU memory used/free/total (MiB): 1930 / 14350 / 16280
------------------
     ethr =  6.35E-06,  avg # of iterations =  2.9

     negative rho (up, down):  3.036E+00 1.011E+00

     total cpu time spent up to now is      451.1 secs

     total energy              =   -2064.00916209 Ry
     estimated scf accuracy    <       0.02893908 Ry

     total magnetization       =    -0.00 Bohr mag/cell
     absolute magnetization    =     5.95 Bohr mag/cell
[tb_dev] Currently allocated     7.22E+00 Mbytes, locked:    0 /  12
[tb_pin] Currently allocated     0.00E+00 Mbytes, locked:    0 /   0

     iteration # 71     ecut=    30.00 Ry     beta= 0.20
     Davidson diagonalization with overlap

---- Real-time Memory Report at c_bands before calling an iterative solver
          2941 MiB given to the printing process from OS
          2020 MiB allocation reported by mallinfo(arena+hblkhd)
         56428 MiB available memory on the node where the printing process lives
     GPU memory used/free/total (MiB): 1930 / 14350 / 16280
------------------
     ethr =  6.35E-06,  avg # of iterations =  3.8

     negative rho (up, down):  3.044E+00 1.005E+00

     total cpu time spent up to now is      458.4 secs

     total energy              =   -2064.01225253 Ry
     estimated scf accuracy    <       0.11300331 Ry

     total magnetization       =    -0.00 Bohr mag/cell
     absolute magnetization    =     4.76 Bohr mag/cell
[tb_dev] Currently allocated     7.22E+00 Mbytes, locked:    0 /  12
[tb_pin] Currently allocated     0.00E+00 Mbytes, locked:    0 /   0

     iteration # 72     ecut=    30.00 Ry     beta= 0.20
     Davidson diagonalization with overlap

---- Real-time Memory Report at c_bands before calling an iterative solver
          2951 MiB given to the printing process from OS
          2028 MiB allocation reported by mallinfo(arena+hblkhd)
         56422 MiB available memory on the node where the printing process lives
     GPU memory used/free/total (MiB): 1930 / 14350 / 16280
------------------
     ethr =  6.35E-06,  avg # of iterations =  1.0

     negative rho (up, down):  3.060E+00 9.931E-01

     total cpu time spent up to now is      464.0 secs

     total energy              =   -2064.00935970 Ry
     estimated scf accuracy    <       0.10638244 Ry

     total magnetization       =    -0.00 Bohr mag/cell
     absolute magnetization    =     4.77 Bohr mag/cell
[tb_dev] Currently allocated     7.22E+00 Mbytes, locked:    0 /  12
[tb_pin] Currently allocated     0.00E+00 Mbytes, locked:    0 /   0

     iteration # 73     ecut=    30.00 Ry     beta= 0.20
     Davidson diagonalization with overlap

---- Real-time Memory Report at c_bands before calling an iterative solver
          2959 MiB given to the printing process from OS
          2037 MiB allocation reported by mallinfo(arena+hblkhd)
         56411 MiB available memory on the node where the printing process lives
     GPU memory used/free/total (MiB): 1930 / 14350 / 16280
------------------
     ethr =  6.35E-06,  avg # of iterations =  3.0

     negative rho (up, down):  3.060E+00 9.936E-01

     total cpu time spent up to now is      470.6 secs

     total energy              =   -2064.01075617 Ry
     estimated scf accuracy    <       0.00609302 Ry

     total magnetization       =    -0.00 Bohr mag/cell
     absolute magnetization    =     5.50 Bohr mag/cell
[tb_dev] Currently allocated     7.22E+00 Mbytes, locked:    0 /  12
[tb_pin] Currently allocated     0.00E+00 Mbytes, locked:    0 /   0

     iteration # 74     ecut=    30.00 Ry     beta= 0.20
     Davidson diagonalization with overlap

---- Real-time Memory Report at c_bands before calling an iterative solver
          2967 MiB given to the printing process from OS
          2045 MiB allocation reported by mallinfo(arena+hblkhd)
         56404 MiB available memory on the node where the printing process lives
     GPU memory used/free/total (MiB): 1930 / 14350 / 16280
------------------
     ethr =  6.35E-06,  avg # of iterations =  1.0

     negative rho (up, down):  3.054E+00 9.966E-01

     total cpu time spent up to now is      476.1 secs

     total energy              =   -2064.01078950 Ry
     estimated scf accuracy    <       0.00763873 Ry

     total magnetization       =    -0.00 Bohr mag/cell
     absolute magnetization    =     5.48 Bohr mag/cell
[tb_dev] Currently allocated     7.22E+00 Mbytes, locked:    0 /  12
[tb_pin] Currently allocated     0.00E+00 Mbytes, locked:    0 /   0

     iteration # 75     ecut=    30.00 Ry     beta= 0.20
     Davidson diagonalization with overlap

---- Real-time Memory Report at c_bands before calling an iterative solver
          2976 MiB given to the printing process from OS
         -2042 MiB allocation reported by mallinfo(arena+hblkhd)
         56397 MiB available memory on the node where the printing process lives
     GPU memory used/free/total (MiB): 1930 / 14350 / 16280
------------------
     ethr =  6.35E-06,  avg # of iterations =  1.9

     negative rho (up, down):  3.057E+00 9.941E-01

     total cpu time spent up to now is      482.1 secs

     total energy              =   -2064.01083836 Ry
     estimated scf accuracy    <       0.01744088 Ry

     total magnetization       =    -0.00 Bohr mag/cell
     absolute magnetization    =     5.24 Bohr mag/cell
[tb_dev] Currently allocated     7.22E+00 Mbytes, locked:    0 /  12
[tb_pin] Currently allocated     0.00E+00 Mbytes, locked:    0 /   0

     iteration # 76     ecut=    30.00 Ry     beta= 0.20
     Davidson diagonalization with overlap

---- Real-time Memory Report at c_bands before calling an iterative solver
          2984 MiB given to the printing process from OS
         -2033 MiB allocation reported by mallinfo(arena+hblkhd)
         56387 MiB available memory on the node where the printing process lives
     GPU memory used/free/total (MiB): 1930 / 14350 / 16280
------------------
     ethr =  6.35E-06,  avg # of iterations =  1.0

     negative rho (up, down):  3.050E+00 9.966E-01

     total cpu time spent up to now is      487.6 secs

     total energy              =   -2064.01150746 Ry
     estimated scf accuracy    <       0.01676900 Ry

     total magnetization       =    -0.00 Bohr mag/cell
     absolute magnetization    =     5.12 Bohr mag/cell
[tb_dev] Currently allocated     7.22E+00 Mbytes, locked:    0 /  12
[tb_pin] Currently allocated     0.00E+00 Mbytes, locked:    0 /   0

     iteration # 77     ecut=    30.00 Ry     beta= 0.20
     Davidson diagonalization with overlap

---- Real-time Memory Report at c_bands before calling an iterative solver
          2994 MiB given to the printing process from OS
         -2025 MiB allocation reported by mallinfo(arena+hblkhd)
         56382 MiB available memory on the node where the printing process lives
     GPU memory used/free/total (MiB): 1930 / 14350 / 16280
------------------
     ethr =  6.35E-06,  avg # of iterations =  2.6

     negative rho (up, down):  3.053E+00 9.958E-01

     total cpu time spent up to now is      494.1 secs

     total energy              =   -2064.01147785 Ry
     estimated scf accuracy    <       0.06260031 Ry

     total magnetization       =    -0.00 Bohr mag/cell
     absolute magnetization    =     4.73 Bohr mag/cell
[tb_dev] Currently allocated     7.22E+00 Mbytes, locked:    0 /  12
[tb_pin] Currently allocated     0.00E+00 Mbytes, locked:    0 /   0

     iteration # 78     ecut=    30.00 Ry     beta= 0.20
     Davidson diagonalization with overlap

---- Real-time Memory Report at c_bands before calling an iterative solver
          3004 MiB given to the printing process from OS
         -2006 MiB allocation reported by mallinfo(arena+hblkhd)
         56358 MiB available memory on the node where the printing process lives
     GPU memory used/free/total (MiB): 1930 / 14350 / 16280
------------------
     ethr =  6.35E-06,  avg # of iterations =  1.1

     negative rho (up, down):  3.067E+00 9.849E-01

     total cpu time spent up to now is      499.6 secs

     total energy              =   -2064.01323461 Ry
     estimated scf accuracy    <       0.05273954 Ry

     total magnetization       =    -0.00 Bohr mag/cell
     absolute magnetization    =     4.80 Bohr mag/cell
[tb_dev] Currently allocated     7.22E+00 Mbytes, locked:    0 /  12
[tb_pin] Currently allocated     0.00E+00 Mbytes, locked:    0 /   0

     iteration # 79     ecut=    30.00 Ry     beta= 0.20
     Davidson diagonalization with overlap

---- Real-time Memory Report at c_bands before calling an iterative solver
          3014 MiB given to the printing process from OS
         -1998 MiB allocation reported by mallinfo(arena+hblkhd)
         56353 MiB available memory on the node where the printing process lives
     GPU memory used/free/total (MiB): 1930 / 14350 / 16280
------------------
     ethr =  6.35E-06,  avg # of iterations =  2.5

     negative rho (up, down):  3.068E+00 9.842E-01

     total cpu time spent up to now is      506.0 secs

     total energy              =   -2064.01355672 Ry
     estimated scf accuracy    <       0.01069394 Ry

     total magnetization       =    -0.00 Bohr mag/cell
     absolute magnetization    =     5.28 Bohr mag/cell
[tb_dev] Currently allocated     7.22E+00 Mbytes, locked:    0 /  12
[tb_pin] Currently allocated     0.00E+00 Mbytes, locked:    0 /   0

     iteration # 80     ecut=    30.00 Ry     beta= 0.20
     Davidson diagonalization with overlap

---- Real-time Memory Report at c_bands before calling an iterative solver
          3023 MiB given to the printing process from OS
         -1989 MiB allocation reported by mallinfo(arena+hblkhd)
         56343 MiB available memory on the node where the printing process lives
     GPU memory used/free/total (MiB): 1930 / 14350 / 16280
------------------
     ethr =  6.35E-06,  avg # of iterations =  1.0

     negative rho (up, down):  3.073E+00 9.816E-01

     total cpu time spent up to now is      511.5 secs

     total energy              =   -2064.01321707 Ry
     estimated scf accuracy    <       0.01047686 Ry

     total magnetization       =    -0.00 Bohr mag/cell
     absolute magnetization    =     5.25 Bohr mag/cell

     End of self-consistent calculation

     convergence NOT achieved after  80 iterations: stopping

     Writing config to output data dir ./out/aiida.save/
 
     init_run     :     33.28s CPU      4.87s WALL (       1 calls)
     electrons    :   1812.06s CPU    505.68s WALL (       1 calls)

     Called by init_run:
     wfcinit      :      0.44s CPU      0.44s WALL (       1 calls)
                                        0.44s GPU  (       1 calls)
     potinit      :     19.38s CPU      1.93s WALL (       1 calls)
     hinit0       :      9.04s CPU      1.79s WALL (       1 calls)

     Called by electrons:
     c_bands      :    382.21s CPU    315.83s WALL (      80 calls)
     sum_band     :     57.55s CPU     65.09s WALL (      80 calls)
     v_of_rho     :     23.29s CPU      2.14s WALL (      81 calls)
     v_h          :      3.39s CPU      0.30s WALL (      81 calls)
     v_xc         :     19.89s CPU      1.83s WALL (      81 calls)
     newd         :     61.89s CPU      5.97s WALL (      81 calls)
                                        5.97s GPU  (      81 calls)
     PAW_pot      :   1266.62s CPU    114.61s WALL (      81 calls)
     mix_rho      :     30.57s CPU      3.23s WALL (      80 calls)

     Called by c_bands:
     init_us_2    :     34.28s CPU     34.71s WALL (   14400 calls)
     init_us_2:gp :     33.99s CPU     34.46s WALL (   14400 calls)
     cegterg      :    309.34s CPU    254.91s WALL (    7200 calls)

     Called by sum_band:
     sum_band:wei :      0.49s CPU      0.49s WALL (      80 calls)
                                        0.49s GPU  (      80 calls)
     sum_band:loo :     48.76s CPU     56.07s WALL (      80 calls)
                                       56.07s GPU  (      80 calls)
     sum_band:buf :     12.95s CPU     13.78s WALL (    7200 calls)
                                       13.74s GPU  (    7200 calls)
     sum_band:ini :     13.53s CPU     17.05s WALL (    7200 calls)
                                       17.01s GPU  (    7200 calls)
     sum_band:cal :      0.20s CPU      2.08s WALL (    7200 calls)
                                        1.86s GPU  (    7200 calls)
     sum_band:bec :      2.32s CPU      2.57s WALL (    7200 calls)
                                        2.52s GPU  (    7200 calls)
     addusdens    :      6.28s CPU      6.48s WALL (      80 calls)
                                        6.48s GPU  (      80 calls)
     addusd:skk   :      0.04s CPU      0.04s WALL (     240 calls)
                                        0.04s GPU  (     240 calls)

     Called by *egterg:
     cdiaghg      :    128.38s CPU    111.71s WALL (   23471 calls)
                                      111.55s GPU  (   23471 calls)
     cegterg:over :      5.03s CPU      4.10s WALL (   16361 calls)
     cegterg:upda :     10.13s CPU      8.34s WALL (   16361 calls)
     cegterg:last :      3.71s CPU      3.01s WALL (   11390 calls)
     h_psi        :    138.76s CPU    109.70s WALL (   23561 calls)
                                      109.41s GPU  (   23561 calls)
     s_psi        :      5.33s CPU      9.68s WALL (   23561 calls)
                                        9.15s GPU  (   23561 calls)
     g_psi        :      0.15s CPU      0.66s WALL (   16361 calls)
                                        0.56s GPU  (   16361 calls)

     Called by h_psi:
     h_psi:calbec :      1.01s CPU      5.49s WALL (   23561 calls)
                                        5.33s GPU  (   23561 calls)
     vloc_psi     :    114.80s CPU     91.08s WALL (   23561 calls)
                                       90.94s GPU  (   23561 calls)
     add_vuspsi   :      8.86s CPU     11.15s WALL (   23561 calls)
                                       10.99s GPU  (   23561 calls)

     General routines
     calbec       :      0.87s CPU      0.71s WALL (   30761 calls)
     fft          :      2.46s CPU      0.42s WALL (    2023 calls)
                                        0.35s GPU  (    1861 calls)
     ffts         :      0.05s CPU      0.04s WALL (     322 calls)
                                        0.01s GPU  (     160 calls)
     fftw         :      3.98s CPU     70.88s WALL (  163442 calls)
                                       69.98s GPU  (  163442 calls)
     interpolate  :      3.13s CPU      0.28s WALL (     162 calls)
     davcio       :      0.29s CPU      0.80s WALL (     198 calls)
 
     Parallel routines

     PAW routines
     PAW_pot      :   1266.62s CPU    114.61s WALL (      81 calls)
     PAW_symme    :      0.53s CPU      0.08s WALL (     160 calls)
 
     PWSCF        :  30m48.84s CPU   8m32.22s WALL

 
   This run was terminated on:  21:41:33  23Oct2023            

=------------------------------------------------------------------------------=
   JOB DONE.
=------------------------------------------------------------------------------=
