
     Program PWSCF v.7.2 starts on 22Oct2023 at 18:23: 9 

     This program is part of the open-source Quantum ESPRESSO suite
     for quantum simulation of materials; please cite
         "P. Giannozzi et al., J. Phys.:Condens. Matter 21 395502 (2009);
         "P. Giannozzi et al., J. Phys.:Condens. Matter 29 465901 (2017);
         "P. Giannozzi et al., J. Chem. Phys. 152 154105 (2020);
          URL http://www.quantum-espresso.org", 
     in publications or presentations arising from this work. More details at
     http://www.quantum-espresso.org/quote

     Parallel version (MPI & OpenMP), running on      12 processor cores
     Number of MPI processes:                 1
     Threads/MPI process:                    12

     MPI processes distributed on     1 nodes
     59698 MiB available memory on the printing compute node when the environment starts
 
     Reading input from aiida.in

     Current dimensions of program PWSCF are:
     Max number of different atomic species (ntypx) = 10
     Max number of k-points (npk) =  40000
     Max angular momentum in pseudopotentials (lmaxx) =  4
     file C.pbesol-n-kjpaw_psl.1.0.0.UPF: wavefunction(s)  2S 2P renormalized
     file Fe.pbesol-spn-kjpaw_psl.0.2.1.UPF: wavefunction(s)  3D renormalized
     file O.pbesol-n-kjpaw_psl.0.1.UPF: wavefunction(s)  2P renormalized
     Message from routine setup:
     using ibrav=0 with symmetry is DISCOURAGED, use correct ibrav instead
 
     Subspace diagonalization in iterative solution of the eigenvalue problem:
     a serial algorithm will be used

 
     G-vector sticks info
     --------------------
     sticks:   dense  smooth     PW     G-vecs:    dense   smooth      PW
     Sum        5941    1979    591               283987    54643    8817
 
     Using Slab Decomposition
 


     bravais-lattice index     =            0
     lattice parameter (alat)  =       9.3388  a.u.
     unit-cell volume          =     473.8942 (a.u.)^3
     number of atoms/cell      =           10
     number of atomic types    =            3
     number of electrons       =        76.00
     number of Kohn-Sham states=           46
     kinetic-energy cutoff     =      90.0000  Ry
     charge density cutoff     =    1080.0000  Ry
     scf convergence threshold =      2.0E-09
     mixing beta               =       0.4000
     number of iterations used =            8  plain     mixing
     Exchange-correlation= SLA  PW   PSX  PSC
                           (   1   4  10   8   0   0   0)

     GPU acceleration is ACTIVE.


     GPU used by master process:

        Device Number: 0
        Device name: Tesla P100-PCIE-16GB
        Compute capability : 60
        Ratio of single to double precision performance  : 2
        Memory Clock Rate (KHz): 715000
        Memory Bus Width (bits): 4096
        Peak Memory Bandwidth (GB/s): 732.16

     celldm(1)=   9.338825  celldm(2)=   0.000000  celldm(3)=   0.000000
     celldm(4)=   0.000000  celldm(5)=   0.000000  celldm(6)=   0.000000

     crystal axes: (cart. coord. in units of alat)
               a(1) = (   0.441936   0.255152   0.859994 )  
               a(2) = (  -0.441936   0.255152   0.859994 )  
               a(3) = (   0.000000  -0.510304   0.859994 )  

     reciprocal axes: (cart. coord. in units 2 pi/alat)
               b(1) = (  1.131386  0.653206  0.387599 )  
               b(2) = ( -1.131386  0.653206  0.387599 )  
               b(3) = ( -0.000000 -1.306412  0.387599 )  


     PseudoPot. # 1 for C  read from file:
     ./pseudo/C.pbesol-n-kjpaw_psl.1.0.0.UPF
     MD5 check sum: 5f3a56537b2bcef3348431d8311bb923
     Pseudo is Projector augmented-wave + core cor, Zval =  4.0
     Generated using "atomic" code by A. Dal Corso  v.6.0 svn rev. 13079
     Shape of augmentation charge: PSQ
     Using radial grid of 1073 points,  4 beta functions with: 
                l(1) =   0
                l(2) =   0
                l(3) =   1
                l(4) =   1
     Q(r) pseudized with 0 coefficients 


     PseudoPot. # 2 for Fe read from file:
     ./pseudo/Fe.pbesol-spn-kjpaw_psl.0.2.1.UPF
     MD5 check sum: 4d7ec5aa2156491519a4322664fbbf52
     Pseudo is Projector augmented-wave + core cor, Zval = 16.0
     Generated using "atomic" code by A. Dal Corso  v.6.0 svn rev. 13079
     Shape of augmentation charge: PSQ
     Using radial grid of 1191 points,  6 beta functions with: 
                l(1) =   0
                l(2) =   0
                l(3) =   1
                l(4) =   1
                l(5) =   2
                l(6) =   2
     Q(r) pseudized with 0 coefficients 


     PseudoPot. # 3 for O  read from file:
     ./pseudo/O.pbesol-n-kjpaw_psl.0.1.UPF
     MD5 check sum: 81d73d1479e654e5638b0319f0d6c2c7
     Pseudo is Projector augmented-wave + core cor, Zval =  6.0
     Generated using "atomic" code by A. Dal Corso  v.6.0 svn rev. 13079
     Shape of augmentation charge: BESSEL
     Using radial grid of 1095 points,  4 beta functions with: 
                l(1) =   0
                l(2) =   0
                l(3) =   1
                l(4) =   1
     Q(r) pseudized with 0 coefficients 


     atomic species   valence    mass     pseudopotential
        C              4.00    12.01070     C ( 1.00)
        Fe            16.00    55.84500     Fe( 1.00)
        O              6.00    15.99940     O ( 1.00)

     Starting magnetic structure 
     atomic species   magnetization
        C            0.100
        Fe           0.313
        O            0.100

     12 Sym. Ops., with inversion, found ( 6 have fractional translation)


                                    s                        frac. trans.

      isym =  1     identity                                     

 cryst.   s( 1) = (     1          0          0      )
                  (     0          1          0      )
                  (     0          0          1      )

 cart.    s( 1) = (  1.0000000  0.0000000 -0.0000000 )
                  ( -0.0000000  1.0000000 -0.0000000 )
                  ( -0.0000000 -0.0000000  1.0000000 )


      isym =  2     180 deg rotation - cart. axis [1,0,0]        

 cryst.   s( 2) = (     0         -1          0      )    f =(  0.5000000 )
                  (    -1          0          0      )       (  0.5000000 )
                  (     0          0         -1      )       (  0.5000000 )

 cart.    s( 2) = (  1.0000000 -0.0000000  0.0000000 )    f =(  0.0000000 )
                  ( -0.0000000 -1.0000000  0.0000000 )       (  0.0000000 )
                  ( -0.0000000  0.0000000 -1.0000000 )       (  1.2899915 )


      isym =  3     120 deg rotation - cryst. axis [0,0,1]       

 cryst.   s( 3) = (     0          1          0      )
                  (     0          0          1      )
                  (     1          0          0      )

 cart.    s( 3) = ( -0.5000000 -0.8660254 -0.0000000 )
                  (  0.8660254 -0.5000000 -0.0000000 )
                  ( -0.0000000  0.0000000  1.0000000 )


      isym =  4     120 deg rotation - cryst. axis [0,0,-1]      

 cryst.   s( 4) = (     0          0          1      )
                  (     1          0          0      )
                  (     0          1          0      )

 cart.    s( 4) = ( -0.5000000  0.8660254 -0.0000000 )
                  ( -0.8660254 -0.5000000 -0.0000000 )
                  (  0.0000000 -0.0000000  1.0000000 )


      isym =  5     180 deg rotation - cryst. axis [0,1,0]       

 cryst.   s( 5) = (    -1          0          0      )    f =(  0.5000000 )
                  (     0          0         -1      )       (  0.5000000 )
                  (     0         -1          0      )       (  0.5000000 )

 cart.    s( 5) = ( -0.5000000 -0.8660254  0.0000000 )    f =(  0.0000000 )
                  ( -0.8660254  0.5000000  0.0000000 )       (  0.0000000 )
                  (  0.0000000  0.0000000 -1.0000000 )       (  1.2899915 )


      isym =  6     180 deg rotation - cryst. axis [1,1,0]       

 cryst.   s( 6) = (     0          0         -1      )    f =(  0.5000000 )
                  (     0         -1          0      )       (  0.5000000 )
                  (    -1          0          0      )       (  0.5000000 )

 cart.    s( 6) = ( -0.5000000  0.8660254  0.0000000 )    f =(  0.0000000 )
                  (  0.8660254  0.5000000  0.0000000 )       (  0.0000000 )
                  ( -0.0000000 -0.0000000 -1.0000000 )       (  1.2899915 )


      isym =  7     inversion                                    

 cryst.   s( 7) = (    -1          0          0      )
                  (     0         -1          0      )
                  (     0          0         -1      )

 cart.    s( 7) = ( -1.0000000 -0.0000000  0.0000000 )
                  (  0.0000000 -1.0000000  0.0000000 )
                  (  0.0000000  0.0000000 -1.0000000 )


      isym =  8     inv. 180 deg rotation - cart. axis [1,0,0]   

 cryst.   s( 8) = (     0          1          0      )    f =( -0.5000000 )
                  (     1          0          0      )       (  0.5000000 )
                  (     0          0          1      )       (  0.5000000 )

 cart.    s( 8) = ( -1.0000000  0.0000000 -0.0000000 )    f =( -0.4419359 )
                  (  0.0000000  1.0000000 -0.0000000 )       ( -0.2551518 )
                  (  0.0000000 -0.0000000  1.0000000 )       (  0.4299972 )


      isym =  9     inv. 120 deg rotation - cryst. axis [0,0,1]  

 cryst.   s( 9) = (     0         -1          0      )
                  (     0          0         -1      )
                  (    -1          0          0      )

 cart.    s( 9) = (  0.5000000  0.8660254  0.0000000 )
                  ( -0.8660254  0.5000000  0.0000000 )
                  (  0.0000000 -0.0000000 -1.0000000 )


      isym = 10     inv. 120 deg rotation - cryst. axis [0,0,-1] 

 cryst.   s(10) = (     0          0         -1      )
                  (    -1          0          0      )
                  (     0         -1          0      )

 cart.    s(10) = (  0.5000000 -0.8660254  0.0000000 )
                  (  0.8660254  0.5000000  0.0000000 )
                  ( -0.0000000  0.0000000 -1.0000000 )


      isym = 11     inv. 180 deg rotation - cryst. axis [0,1,0]  

 cryst.   s(11) = (     1          0          0      )    f =( -0.5000000 )
                  (     0          0          1      )       (  0.5000000 )
                  (     0          1          0      )       (  0.5000000 )

 cart.    s(11) = (  0.5000000  0.8660254 -0.0000000 )    f =( -0.4419359 )
                  (  0.8660254 -0.5000000 -0.0000000 )       ( -0.2551518 )
                  ( -0.0000000 -0.0000000  1.0000000 )       (  0.4299972 )


      isym = 12     inv. 180 deg rotation - cryst. axis [1,1,0]  

 cryst.   s(12) = (     0          0          1      )    f =( -0.5000000 )
                  (     0          1          0      )       (  0.5000000 )
                  (     1          0          0      )       (  0.5000000 )

 cart.    s(12) = (  0.5000000 -0.8660254 -0.0000000 )    f =( -0.4419359 )
                  ( -0.8660254 -0.5000000 -0.0000000 )       ( -0.2551518 )
                  (  0.0000000  0.0000000  1.0000000 )       (  0.4299972 )


   Cartesian axes

     site n.     atom                  positions (alat units)
         1           Fe  tau(   1) = (   0.4419359   0.2551518   0.8599943  )
         2           Fe  tau(   2) = (  -0.0000000   0.0000000   1.2899915  )
         3           C   tau(   3) = (  -0.0000000   0.5103036   1.0749929  )
         4           C   tau(   4) = (  -0.0000000   0.0000000   0.6449957  )
         5           O   tau(   5) = (  -0.1270566   0.2902352   1.0749929  )
         6           O   tau(   6) = (   0.6297587  -0.0000000   0.6449957  )
         7           O   tau(   7) = (  -0.3148793   0.5453870   0.6449957  )
         8           O   tau(   8) = (  -0.1270566   0.7303721   1.0749929  )
         9           O   tau(   9) = (   0.1270566   0.2200684   0.6449957  )
        10           O   tau(  10) = (   0.2541131   0.5103036   1.0749929  )

   Crystallographic axes

     site n.     atom                  positions (cryst. coord.)
         1           Fe  tau(   1) = (  1.0000000  0.0000000  0.0000000  )
         2           Fe  tau(   2) = (  0.5000000  0.5000000  0.5000000  )
         3           C   tau(   3) = (  0.7500000  0.7500000 -0.2500000  )
         4           C   tau(   4) = (  0.2500000  0.2500000  0.2500000  )
         5           O   tau(   5) = (  0.4625000  0.7500000  0.0375000  )
         6           O   tau(   6) = (  0.9625000 -0.4625000  0.2500000  )
         7           O   tau(   7) = (  0.2500000  0.9625000 -0.4625000  )
         8           O   tau(   8) = (  0.7500000  1.0375000 -0.5375000  )
         9           O   tau(   9) = (  0.5375000  0.2500000 -0.0375000  )
        10           O   tau(  10) = (  1.0375000  0.4625000 -0.2500000  )

     number of k points=   189  Marzari-Vanderbilt smearing, width (Ry)=  0.0100
                       cart. coord. in units 2pi/alat
        k(    1) = (   0.0000000   0.0000000   0.0000000), wk =   0.0005787
        k(    2) = (  -0.0000000  -0.1088676   0.0323000), wk =   0.0034722
        k(    3) = (  -0.0000000  -0.2177353   0.0645999), wk =   0.0034722
        k(    4) = (  -0.0000000  -0.3266029   0.0968999), wk =   0.0034722
        k(    5) = (  -0.0000000  -0.4354706   0.1291998), wk =   0.0034722
        k(    6) = (  -0.0000000  -0.5443382   0.1614998), wk =   0.0034722
        k(    7) = (   0.0000000   0.6532059  -0.1937997), wk =   0.0017361
        k(    8) = (  -0.0942821  -0.0544338   0.0645999), wk =   0.0034722
        k(    9) = (  -0.0942821  -0.1633015   0.0968999), wk =   0.0069444
        k(   10) = (  -0.0942821  -0.2721691   0.1291998), wk =   0.0069444
        k(   11) = (  -0.0942821  -0.3810368   0.1614998), wk =   0.0069444
        k(   12) = (  -0.0942821  -0.4899044   0.1937997), wk =   0.0069444
        k(   13) = (  -0.0942821   0.7076397  -0.1614998), wk =   0.0069444
        k(   14) = (  -0.0942821   0.5987721  -0.1291998), wk =   0.0069444
        k(   15) = (  -0.0942821   0.4899044  -0.0968999), wk =   0.0069444
        k(   16) = (  -0.0942821   0.3810368  -0.0645999), wk =   0.0069444
        k(   17) = (  -0.0942821   0.2721691  -0.0323000), wk =   0.0069444
        k(   18) = (  -0.0942821   0.1633015  -0.0000000), wk =   0.0034722
        k(   19) = (  -0.1885643  -0.1088676   0.1291998), wk =   0.0034722
        k(   20) = (  -0.1885643  -0.2177353   0.1614998), wk =   0.0069444
        k(   21) = (  -0.1885643  -0.3266029   0.1937997), wk =   0.0069444
        k(   22) = (  -0.1885643  -0.4354706   0.2260997), wk =   0.0069444
        k(   23) = (  -0.1885643   0.7620735  -0.1291998), wk =   0.0069444
        k(   24) = (  -0.1885643   0.6532059  -0.0968999), wk =   0.0069444
        k(   25) = (  -0.1885643   0.5443382  -0.0645999), wk =   0.0069444
        k(   26) = (  -0.1885643   0.4354706  -0.0323000), wk =   0.0069444
        k(   27) = (  -0.1885643   0.3266029   0.0000000), wk =   0.0034722
        k(   28) = (  -0.2828464  -0.1633015   0.1937997), wk =   0.0034722
        k(   29) = (  -0.2828464  -0.2721691   0.2260997), wk =   0.0069444
        k(   30) = (  -0.2828464  -0.3810368   0.2583996), wk =   0.0069444
        k(   31) = (  -0.2828464   0.8165074  -0.0968999), wk =   0.0069444
        k(   32) = (  -0.2828464   0.7076397  -0.0645999), wk =   0.0069444
        k(   33) = (  -0.2828464   0.5987721  -0.0323000), wk =   0.0069444
        k(   34) = (  -0.2828464   0.4899044   0.0000000), wk =   0.0034722
        k(   35) = (  -0.3771286  -0.2177353   0.2583996), wk =   0.0034722
        k(   36) = (  -0.3771286  -0.3266029   0.2906996), wk =   0.0069444
        k(   37) = (  -0.3771286   0.8709412  -0.0645999), wk =   0.0069444
        k(   38) = (  -0.3771286   0.7620735  -0.0323000), wk =   0.0069444
        k(   39) = (  -0.3771286   0.6532059  -0.0000000), wk =   0.0034722
        k(   40) = (  -0.4714107  -0.2721691   0.3229996), wk =   0.0034722
        k(   41) = (  -0.4714107   0.9253750  -0.0323000), wk =   0.0069444
        k(   42) = (  -0.4714107   0.8165074   0.0000000), wk =   0.0034722
        k(   43) = (   0.5656929   0.3266029  -0.3875995), wk =   0.0017361
        k(   44) = (   0.0000000   0.0000000   0.0968999), wk =   0.0011574
        k(   45) = (   0.0000000  -0.1088676   0.1291998), wk =   0.0034722
        k(   46) = (   0.0000000  -0.2177353   0.1614998), wk =   0.0034722
        k(   47) = (   0.0000000  -0.3266029   0.1937997), wk =   0.0034722
        k(   48) = (   0.0000000  -0.4354706   0.2260997), wk =   0.0034722
        k(   49) = (   0.0000000   0.7620735  -0.1291998), wk =   0.0034722
        k(   50) = (   0.0000000   0.6532059  -0.0968999), wk =   0.0034722
        k(   51) = (   0.0000000   0.5443382  -0.0645999), wk =   0.0034722
        k(   52) = (   0.0000000   0.4354706  -0.0323000), wk =   0.0034722
        k(   53) = (   0.0000000   0.3266029   0.0000000), wk =   0.0034722
        k(   54) = (   0.0000000   0.2177353   0.0323000), wk =   0.0034722
        k(   55) = (  -0.0942821  -0.0544338   0.1614998), wk =   0.0034722
        k(   56) = (  -0.0942821  -0.1633015   0.1937997), wk =   0.0069444
        k(   57) = (  -0.0942821  -0.2721691   0.2260997), wk =   0.0069444
        k(   58) = (  -0.0942821  -0.3810368   0.2583996), wk =   0.0069444
        k(   59) = (  -0.0942821   0.8165074  -0.0968999), wk =   0.0069444
        k(   60) = (  -0.0942821   0.7076397  -0.0645999), wk =   0.0069444
        k(   61) = (  -0.0942821   0.5987721  -0.0323000), wk =   0.0069444
        k(   62) = (  -0.0942821   0.4899044  -0.0000000), wk =   0.0069444
        k(   63) = (  -0.0942821   0.3810368   0.0323000), wk =   0.0069444
        k(   64) = (  -0.0942821   0.2721691   0.0645999), wk =   0.0069444
        k(   65) = (  -0.1885643  -0.1088676   0.2260997), wk =   0.0034722
        k(   66) = (  -0.1885643  -0.2177353   0.2583996), wk =   0.0069444
        k(   67) = (  -0.1885643  -0.3266029   0.2906996), wk =   0.0069444
        k(   68) = (  -0.1885643   0.8709412  -0.0645999), wk =   0.0069444
        k(   69) = (  -0.1885643   0.7620735  -0.0323000), wk =   0.0069444
        k(   70) = (  -0.1885643   0.6532059  -0.0000000), wk =   0.0069444
        k(   71) = (  -0.1885643   0.5443382   0.0323000), wk =   0.0069444
        k(   72) = (  -0.1885643   0.4354706   0.0645999), wk =   0.0069444
        k(   73) = (  -0.1885643   0.3266029   0.0968999), wk =   0.0069444
        k(   74) = (  -0.2828464  -0.1633015   0.2906996), wk =   0.0034722
        k(   75) = (  -0.2828464  -0.2721691   0.3229996), wk =   0.0069444
        k(   76) = (  -0.2828464   0.9253750  -0.0323000), wk =   0.0069444
        k(   77) = (  -0.2828464   0.8165074  -0.0000000), wk =   0.0069444
        k(   78) = (  -0.2828464   0.7076397   0.0323000), wk =   0.0069444
        k(   79) = (  -0.2828464   0.5987721   0.0645999), wk =   0.0069444
        k(   80) = (  -0.2828464   0.4899044   0.0968999), wk =   0.0069444
        k(   81) = (  -0.2828464   0.3810368   0.1291998), wk =   0.0069444
        k(   82) = (  -0.3771286  -0.2177353   0.3552995), wk =   0.0034722
        k(   83) = (  -0.3771286   0.9798088   0.0000000), wk =   0.0069444
        k(   84) = (  -0.3771286   0.8709412   0.0323000), wk =   0.0069444
        k(   85) = (  -0.3771286   0.7620735   0.0645999), wk =   0.0069444
        k(   86) = (  -0.3771286   0.6532059   0.0968999), wk =   0.0069444
        k(   87) = (  -0.3771286   0.5443382   0.1291998), wk =   0.0069444
        k(   88) = (  -0.3771286   0.4354706   0.1614998), wk =   0.0069444
        k(   89) = (   0.6599750   0.3810368  -0.3552995), wk =   0.0034722
        k(   90) = (   0.6599750   0.2721691  -0.3229996), wk =   0.0069444
        k(   91) = (   0.6599750   0.1633015  -0.2906996), wk =   0.0069444
        k(   92) = (   0.6599750   0.0544338  -0.2583996), wk =   0.0069444
        k(   93) = (   0.6599750  -0.0544338  -0.2260997), wk =   0.0069444
        k(   94) = (   0.6599750  -0.1633015  -0.1937997), wk =   0.0034722
        k(   95) = (   0.5656929   0.3266029  -0.2906996), wk =   0.0034722
        k(   96) = (   0.5656929   0.2177353  -0.2583996), wk =   0.0069444
        k(   97) = (   0.5656929   0.1088676  -0.2260997), wk =   0.0069444
        k(   98) = (   0.5656929  -0.0000000  -0.1937997), wk =   0.0069444
        k(   99) = (   0.4714107   0.2721691  -0.2260997), wk =   0.0034722
        k(  100) = (   0.4714107   0.1633015  -0.1937997), wk =   0.0069444
        k(  101) = (   0.4714107   0.0544338  -0.1614998), wk =   0.0069444
        k(  102) = (   0.3771286   0.2177353  -0.1614998), wk =   0.0034722
        k(  103) = (   0.3771286   0.1088676  -0.1291998), wk =   0.0069444
        k(  104) = (   0.2828464   0.1633015  -0.0968999), wk =   0.0034722
        k(  105) = (   0.0000000   0.0000000   0.1937997), wk =   0.0011574
        k(  106) = (   0.0000000  -0.1088676   0.2260997), wk =   0.0034722
        k(  107) = (   0.0000000  -0.2177353   0.2583996), wk =   0.0034722
        k(  108) = (   0.0000000  -0.3266029   0.2906996), wk =   0.0034722
        k(  109) = (   0.0000000   0.8709412  -0.0645999), wk =   0.0034722
        k(  110) = (   0.0000000   0.7620735  -0.0323000), wk =   0.0034722
        k(  111) = (   0.0000000   0.6532059  -0.0000000), wk =   0.0034722
        k(  112) = (   0.0000000   0.5443382   0.0323000), wk =   0.0034722
        k(  113) = (   0.0000000   0.4354706   0.0645999), wk =   0.0034722
        k(  114) = (  -0.0942821  -0.0544338   0.2583996), wk =   0.0034722
        k(  115) = (  -0.0942821  -0.1633015   0.2906996), wk =   0.0069444
        k(  116) = (  -0.0942821  -0.2721691   0.3229996), wk =   0.0069444
        k(  117) = (  -0.0942821   0.9253750  -0.0323000), wk =   0.0069444
        k(  118) = (  -0.0942821   0.8165074  -0.0000000), wk =   0.0069444
        k(  119) = (  -0.0942821   0.7076397   0.0323000), wk =   0.0069444
        k(  120) = (  -0.0942821   0.5987721   0.0645999), wk =   0.0069444
        k(  121) = (  -0.0942821   0.4899044   0.0968999), wk =   0.0069444
        k(  122) = (  -0.1885643  -0.1088676   0.3229996), wk =   0.0034722
        k(  123) = (  -0.1885643  -0.2177353   0.3552995), wk =   0.0069444
        k(  124) = (  -0.1885643   0.9798088  -0.0000000), wk =   0.0069444
        k(  125) = (  -0.1885643   0.8709412   0.0323000), wk =   0.0069444
        k(  126) = (  -0.1885643   0.7620735   0.0645999), wk =   0.0069444
        k(  127) = (  -0.1885643   0.6532059   0.0968999), wk =   0.0069444
        k(  128) = (  -0.1885643   0.5443382   0.1291998), wk =   0.0069444
        k(  129) = (  -0.2828464  -0.1633015   0.3875995), wk =   0.0034722
        k(  130) = (  -0.2828464   1.0342427   0.0323000), wk =   0.0069444
        k(  131) = (  -0.2828464   0.9253750   0.0645999), wk =   0.0069444
        k(  132) = (  -0.2828464   0.8165074   0.0968999), wk =   0.0069444
        k(  133) = (  -0.2828464   0.7076397   0.1291998), wk =   0.0069444
        k(  134) = (  -0.2828464   0.5987721   0.1614998), wk =   0.0069444
        k(  135) = (   0.7542572   0.4354706  -0.3229996), wk =   0.0034722
        k(  136) = (   0.7542572   0.3266029  -0.2906996), wk =   0.0069444
        k(  137) = (   0.7542572   0.2177353  -0.2583996), wk =   0.0069444
        k(  138) = (   0.7542572   0.1088676  -0.2260997), wk =   0.0069444
        k(  139) = (   0.7542572  -0.0000000  -0.1937997), wk =   0.0034722
        k(  140) = (   0.6599750   0.3810368  -0.2583996), wk =   0.0034722
        k(  141) = (   0.6599750   0.2721691  -0.2260997), wk =   0.0069444
        k(  142) = (   0.6599750   0.1633015  -0.1937997), wk =   0.0069444
        k(  143) = (   0.5656929   0.3266029  -0.1937997), wk =   0.0034722
        k(  144) = (   0.5656929   0.2177353  -0.1614998), wk =   0.0069444
        k(  145) = (   0.4714107   0.2721691  -0.1291998), wk =   0.0034722
        k(  146) = (  -0.0000000   0.0000000   0.2906996), wk =   0.0011574
        k(  147) = (  -0.0000000  -0.1088676   0.3229996), wk =   0.0034722
        k(  148) = (  -0.0000000  -0.2177353   0.3552995), wk =   0.0034722
        k(  149) = (   0.0000000   0.9798088   0.0000000), wk =   0.0034722
        k(  150) = (   0.0000000   0.8709412   0.0323000), wk =   0.0034722
        k(  151) = (   0.0000000   0.7620735   0.0645999), wk =   0.0034722
        k(  152) = (   0.0000000   0.6532059   0.0968999), wk =   0.0034722
        k(  153) = (  -0.0942821  -0.0544338   0.3552995), wk =   0.0034722
        k(  154) = (  -0.0942821  -0.1633015   0.3875995), wk =   0.0069444
        k(  155) = (  -0.0942821   1.0342427   0.0323000), wk =   0.0069444
        k(  156) = (  -0.0942821   0.9253750   0.0645999), wk =   0.0069444
        k(  157) = (  -0.0942821   0.8165074   0.0968999), wk =   0.0069444
        k(  158) = (  -0.0942821   0.7076397   0.1291998), wk =   0.0069444
        k(  159) = (  -0.1885643  -0.1088676   0.4198994), wk =   0.0034722
        k(  160) = (  -0.1885643   1.0886765   0.0645999), wk =   0.0069444
        k(  161) = (  -0.1885643   0.9798088   0.0968999), wk =   0.0069444
        k(  162) = (  -0.1885643   0.8709412   0.1291998), wk =   0.0069444
        k(  163) = (  -0.1885643   0.7620735   0.1614998), wk =   0.0069444
        k(  164) = (   0.8485393   0.4899044  -0.2906996), wk =   0.0034722
        k(  165) = (   0.8485393   0.3810368  -0.2583996), wk =   0.0069444
        k(  166) = (   0.8485393   0.2721691  -0.2260997), wk =   0.0069444
        k(  167) = (   0.8485393   0.1633015  -0.1937997), wk =   0.0034722
        k(  168) = (   0.7542572   0.4354706  -0.2260997), wk =   0.0034722
        k(  169) = (   0.7542572   0.3266029  -0.1937997), wk =   0.0069444
        k(  170) = (   0.6599750   0.3810368  -0.1614998), wk =   0.0034722
        k(  171) = (   0.0000000   0.0000000   0.3875995), wk =   0.0011574
        k(  172) = (   0.0000000  -0.1088676   0.4198994), wk =   0.0034722
        k(  173) = (   0.0000000   1.0886765   0.0645999), wk =   0.0034722
        k(  174) = (   0.0000000   0.9798088   0.0968999), wk =   0.0034722
        k(  175) = (   0.0000000   0.8709412   0.1291998), wk =   0.0034722
        k(  176) = (  -0.0942821  -0.0544338   0.4521994), wk =   0.0034722
        k(  177) = (  -0.0942821   1.1431103   0.0968999), wk =   0.0069444
        k(  178) = (  -0.0942821   1.0342427   0.1291998), wk =   0.0069444
        k(  179) = (  -0.0942821   0.9253750   0.1614998), wk =   0.0069444
        k(  180) = (   0.9428215   0.5443382  -0.2583996), wk =   0.0034722
        k(  181) = (   0.9428215   0.4354706  -0.2260997), wk =   0.0069444
        k(  182) = (   0.9428215   0.3266029  -0.1937997), wk =   0.0034722
        k(  183) = (   0.8485393   0.4899044  -0.1937997), wk =   0.0034722
        k(  184) = (  -0.0000000   0.0000000   0.4844993), wk =   0.0011574
        k(  185) = (  -0.0000000   1.1975441   0.1291998), wk =   0.0034722
        k(  186) = (  -0.0000000   1.0886765   0.1614998), wk =   0.0034722
        k(  187) = (   1.0371036   0.5987721  -0.2260997), wk =   0.0034722
        k(  188) = (   1.0371036   0.4899044  -0.1937997), wk =   0.0034722
        k(  189) = (   0.0000000   0.0000000  -0.5813992), wk =   0.0005787

                       cryst. coord.
        k(    1) = (   0.0000000   0.0000000   0.0000000), wk =   0.0005787
        k(    2) = (  -0.0000000  -0.0000000   0.0833333), wk =   0.0034722
        k(    3) = (  -0.0000000  -0.0000000   0.1666667), wk =   0.0034722
        k(    4) = (  -0.0000000  -0.0000000   0.2500000), wk =   0.0034722
        k(    5) = (  -0.0000000  -0.0000000   0.3333333), wk =   0.0034722
        k(    6) = (  -0.0000000  -0.0000000   0.4166667), wk =   0.0034722
        k(    7) = (   0.0000000   0.0000000  -0.5000000), wk =   0.0017361
        k(    8) = (  -0.0000000   0.0833333   0.0833333), wk =   0.0034722
        k(    9) = (  -0.0000000   0.0833333   0.1666667), wk =   0.0069444
        k(   10) = (  -0.0000000   0.0833333   0.2500000), wk =   0.0069444
        k(   11) = (  -0.0000000   0.0833333   0.3333333), wk =   0.0069444
        k(   12) = (  -0.0000000   0.0833333   0.4166667), wk =   0.0069444
        k(   13) = (  -0.0000000   0.0833333  -0.5000000), wk =   0.0069444
        k(   14) = (  -0.0000000   0.0833333  -0.4166667), wk =   0.0069444
        k(   15) = (  -0.0000000   0.0833333  -0.3333333), wk =   0.0069444
        k(   16) = (  -0.0000000   0.0833333  -0.2500000), wk =   0.0069444
        k(   17) = (   0.0000000   0.0833333  -0.1666667), wk =   0.0069444
        k(   18) = (  -0.0000000   0.0833333  -0.0833333), wk =   0.0034722
        k(   19) = (  -0.0000000   0.1666667   0.1666667), wk =   0.0034722
        k(   20) = (  -0.0000000   0.1666667   0.2500000), wk =   0.0069444
        k(   21) = (  -0.0000000   0.1666667   0.3333333), wk =   0.0069444
        k(   22) = (   0.0000000   0.1666667   0.4166667), wk =   0.0069444
        k(   23) = (  -0.0000000   0.1666667  -0.5000000), wk =   0.0069444
        k(   24) = (  -0.0000000   0.1666667  -0.4166667), wk =   0.0069444
        k(   25) = (  -0.0000000   0.1666667  -0.3333333), wk =   0.0069444
        k(   26) = (  -0.0000000   0.1666667  -0.2500000), wk =   0.0069444
        k(   27) = (  -0.0000000   0.1666667  -0.1666667), wk =   0.0034722
        k(   28) = (  -0.0000000   0.2500000   0.2500000), wk =   0.0034722
        k(   29) = (   0.0000000   0.2500000   0.3333333), wk =   0.0069444
        k(   30) = (   0.0000000   0.2500000   0.4166667), wk =   0.0069444
        k(   31) = (   0.0000000   0.2500000  -0.5000000), wk =   0.0069444
        k(   32) = (   0.0000000   0.2500000  -0.4166667), wk =   0.0069444
        k(   33) = (  -0.0000000   0.2500000  -0.3333333), wk =   0.0069444
        k(   34) = (  -0.0000000   0.2500000  -0.2500000), wk =   0.0034722
        k(   35) = (  -0.0000000   0.3333333   0.3333333), wk =   0.0034722
        k(   36) = (   0.0000000   0.3333333   0.4166667), wk =   0.0069444
        k(   37) = (  -0.0000000   0.3333333  -0.5000000), wk =   0.0069444
        k(   38) = (  -0.0000000   0.3333333  -0.4166667), wk =   0.0069444
        k(   39) = (  -0.0000000   0.3333333  -0.3333333), wk =   0.0034722
        k(   40) = (   0.0000000   0.4166667   0.4166667), wk =   0.0034722
        k(   41) = (   0.0000000   0.4166667  -0.5000000), wk =   0.0069444
        k(   42) = (   0.0000000   0.4166667  -0.4166667), wk =   0.0034722
        k(   43) = (   0.0000000  -0.5000000  -0.5000000), wk =   0.0017361
        k(   44) = (   0.0833333   0.0833333   0.0833333), wk =   0.0011574
        k(   45) = (   0.0833333   0.0833333   0.1666667), wk =   0.0034722
        k(   46) = (   0.0833333   0.0833333   0.2500000), wk =   0.0034722
        k(   47) = (   0.0833333   0.0833333   0.3333333), wk =   0.0034722
        k(   48) = (   0.0833333   0.0833333   0.4166667), wk =   0.0034722
        k(   49) = (   0.0833333   0.0833333  -0.5000000), wk =   0.0034722
        k(   50) = (   0.0833333   0.0833333  -0.4166667), wk =   0.0034722
        k(   51) = (   0.0833333   0.0833333  -0.3333333), wk =   0.0034722
        k(   52) = (   0.0833333   0.0833333  -0.2500000), wk =   0.0034722
        k(   53) = (   0.0833333   0.0833333  -0.1666667), wk =   0.0034722
        k(   54) = (   0.0833333   0.0833333  -0.0833333), wk =   0.0034722
        k(   55) = (   0.0833333   0.1666667   0.1666667), wk =   0.0034722
        k(   56) = (   0.0833333   0.1666667   0.2500000), wk =   0.0069444
        k(   57) = (   0.0833333   0.1666667   0.3333333), wk =   0.0069444
        k(   58) = (   0.0833333   0.1666667   0.4166667), wk =   0.0069444
        k(   59) = (   0.0833333   0.1666667  -0.5000000), wk =   0.0069444
        k(   60) = (   0.0833333   0.1666667  -0.4166667), wk =   0.0069444
        k(   61) = (   0.0833333   0.1666667  -0.3333333), wk =   0.0069444
        k(   62) = (   0.0833333   0.1666667  -0.2500000), wk =   0.0069444
        k(   63) = (   0.0833333   0.1666667  -0.1666667), wk =   0.0069444
        k(   64) = (   0.0833333   0.1666667  -0.0833333), wk =   0.0069444
        k(   65) = (   0.0833333   0.2500000   0.2500000), wk =   0.0034722
        k(   66) = (   0.0833333   0.2500000   0.3333333), wk =   0.0069444
        k(   67) = (   0.0833333   0.2500000   0.4166667), wk =   0.0069444
        k(   68) = (   0.0833333   0.2500000  -0.5000000), wk =   0.0069444
        k(   69) = (   0.0833333   0.2500000  -0.4166667), wk =   0.0069444
        k(   70) = (   0.0833333   0.2500000  -0.3333333), wk =   0.0069444
        k(   71) = (   0.0833333   0.2500000  -0.2500000), wk =   0.0069444
        k(   72) = (   0.0833333   0.2500000  -0.1666667), wk =   0.0069444
        k(   73) = (   0.0833333   0.2500000  -0.0833333), wk =   0.0069444
        k(   74) = (   0.0833333   0.3333333   0.3333333), wk =   0.0034722
        k(   75) = (   0.0833333   0.3333333   0.4166667), wk =   0.0069444
        k(   76) = (   0.0833333   0.3333333  -0.5000000), wk =   0.0069444
        k(   77) = (   0.0833333   0.3333333  -0.4166667), wk =   0.0069444
        k(   78) = (   0.0833333   0.3333333  -0.3333333), wk =   0.0069444
        k(   79) = (   0.0833333   0.3333333  -0.2500000), wk =   0.0069444
        k(   80) = (   0.0833333   0.3333333  -0.1666667), wk =   0.0069444
        k(   81) = (   0.0833333   0.3333333  -0.0833333), wk =   0.0069444
        k(   82) = (   0.0833333   0.4166667   0.4166667), wk =   0.0034722
        k(   83) = (   0.0833333   0.4166667  -0.5000000), wk =   0.0069444
        k(   84) = (   0.0833333   0.4166667  -0.4166667), wk =   0.0069444
        k(   85) = (   0.0833333   0.4166667  -0.3333333), wk =   0.0069444
        k(   86) = (   0.0833333   0.4166667  -0.2500000), wk =   0.0069444
        k(   87) = (   0.0833333   0.4166667  -0.1666667), wk =   0.0069444
        k(   88) = (   0.0833333   0.4166667  -0.0833333), wk =   0.0069444
        k(   89) = (   0.0833333  -0.5000000  -0.5000000), wk =   0.0034722
        k(   90) = (   0.0833333  -0.5000000  -0.4166667), wk =   0.0069444
        k(   91) = (   0.0833333  -0.5000000  -0.3333333), wk =   0.0069444
        k(   92) = (   0.0833333  -0.5000000  -0.2500000), wk =   0.0069444
        k(   93) = (   0.0833333  -0.5000000  -0.1666667), wk =   0.0069444
        k(   94) = (   0.0833333  -0.5000000  -0.0833333), wk =   0.0034722
        k(   95) = (   0.0833333  -0.4166667  -0.4166667), wk =   0.0034722
        k(   96) = (   0.0833333  -0.4166667  -0.3333333), wk =   0.0069444
        k(   97) = (   0.0833333  -0.4166667  -0.2500000), wk =   0.0069444
        k(   98) = (   0.0833333  -0.4166667  -0.1666667), wk =   0.0069444
        k(   99) = (   0.0833333  -0.3333333  -0.3333333), wk =   0.0034722
        k(  100) = (   0.0833333  -0.3333333  -0.2500000), wk =   0.0069444
        k(  101) = (   0.0833333  -0.3333333  -0.1666667), wk =   0.0069444
        k(  102) = (   0.0833333  -0.2500000  -0.2500000), wk =   0.0034722
        k(  103) = (   0.0833333  -0.2500000  -0.1666667), wk =   0.0069444
        k(  104) = (   0.0833333  -0.1666667  -0.1666667), wk =   0.0034722
        k(  105) = (   0.1666667   0.1666667   0.1666667), wk =   0.0011574
        k(  106) = (   0.1666667   0.1666667   0.2500000), wk =   0.0034722
        k(  107) = (   0.1666667   0.1666667   0.3333333), wk =   0.0034722
        k(  108) = (   0.1666667   0.1666667   0.4166667), wk =   0.0034722
        k(  109) = (   0.1666667   0.1666667  -0.5000000), wk =   0.0034722
        k(  110) = (   0.1666667   0.1666667  -0.4166667), wk =   0.0034722
        k(  111) = (   0.1666667   0.1666667  -0.3333333), wk =   0.0034722
        k(  112) = (   0.1666667   0.1666667  -0.2500000), wk =   0.0034722
        k(  113) = (   0.1666667   0.1666667  -0.1666667), wk =   0.0034722
        k(  114) = (   0.1666667   0.2500000   0.2500000), wk =   0.0034722
        k(  115) = (   0.1666667   0.2500000   0.3333333), wk =   0.0069444
        k(  116) = (   0.1666667   0.2500000   0.4166667), wk =   0.0069444
        k(  117) = (   0.1666667   0.2500000  -0.5000000), wk =   0.0069444
        k(  118) = (   0.1666667   0.2500000  -0.4166667), wk =   0.0069444
        k(  119) = (   0.1666667   0.2500000  -0.3333333), wk =   0.0069444
        k(  120) = (   0.1666667   0.2500000  -0.2500000), wk =   0.0069444
        k(  121) = (   0.1666667   0.2500000  -0.1666667), wk =   0.0069444
        k(  122) = (   0.1666667   0.3333333   0.3333333), wk =   0.0034722
        k(  123) = (   0.1666667   0.3333333   0.4166667), wk =   0.0069444
        k(  124) = (   0.1666667   0.3333333  -0.5000000), wk =   0.0069444
        k(  125) = (   0.1666667   0.3333333  -0.4166667), wk =   0.0069444
        k(  126) = (   0.1666667   0.3333333  -0.3333333), wk =   0.0069444
        k(  127) = (   0.1666667   0.3333333  -0.2500000), wk =   0.0069444
        k(  128) = (   0.1666667   0.3333333  -0.1666667), wk =   0.0069444
        k(  129) = (   0.1666667   0.4166667   0.4166667), wk =   0.0034722
        k(  130) = (   0.1666667   0.4166667  -0.5000000), wk =   0.0069444
        k(  131) = (   0.1666667   0.4166667  -0.4166667), wk =   0.0069444
        k(  132) = (   0.1666667   0.4166667  -0.3333333), wk =   0.0069444
        k(  133) = (   0.1666667   0.4166667  -0.2500000), wk =   0.0069444
        k(  134) = (   0.1666667   0.4166667  -0.1666667), wk =   0.0069444
        k(  135) = (   0.1666667  -0.5000000  -0.5000000), wk =   0.0034722
        k(  136) = (   0.1666667  -0.5000000  -0.4166667), wk =   0.0069444
        k(  137) = (   0.1666667  -0.5000000  -0.3333333), wk =   0.0069444
        k(  138) = (   0.1666667  -0.5000000  -0.2500000), wk =   0.0069444
        k(  139) = (   0.1666667  -0.5000000  -0.1666667), wk =   0.0034722
        k(  140) = (   0.1666667  -0.4166667  -0.4166667), wk =   0.0034722
        k(  141) = (   0.1666667  -0.4166667  -0.3333333), wk =   0.0069444
        k(  142) = (   0.1666667  -0.4166667  -0.2500000), wk =   0.0069444
        k(  143) = (   0.1666667  -0.3333333  -0.3333333), wk =   0.0034722
        k(  144) = (   0.1666667  -0.3333333  -0.2500000), wk =   0.0069444
        k(  145) = (   0.1666667  -0.2500000  -0.2500000), wk =   0.0034722
        k(  146) = (   0.2500000   0.2500000   0.2500000), wk =   0.0011574
        k(  147) = (   0.2500000   0.2500000   0.3333333), wk =   0.0034722
        k(  148) = (   0.2500000   0.2500000   0.4166667), wk =   0.0034722
        k(  149) = (   0.2500000   0.2500000  -0.5000000), wk =   0.0034722
        k(  150) = (   0.2500000   0.2500000  -0.4166667), wk =   0.0034722
        k(  151) = (   0.2500000   0.2500000  -0.3333333), wk =   0.0034722
        k(  152) = (   0.2500000   0.2500000  -0.2500000), wk =   0.0034722
        k(  153) = (   0.2500000   0.3333333   0.3333333), wk =   0.0034722
        k(  154) = (   0.2500000   0.3333333   0.4166667), wk =   0.0069444
        k(  155) = (   0.2500000   0.3333333  -0.5000000), wk =   0.0069444
        k(  156) = (   0.2500000   0.3333333  -0.4166667), wk =   0.0069444
        k(  157) = (   0.2500000   0.3333333  -0.3333333), wk =   0.0069444
        k(  158) = (   0.2500000   0.3333333  -0.2500000), wk =   0.0069444
        k(  159) = (   0.2500000   0.4166667   0.4166667), wk =   0.0034722
        k(  160) = (   0.2500000   0.4166667  -0.5000000), wk =   0.0069444
        k(  161) = (   0.2500000   0.4166667  -0.4166667), wk =   0.0069444
        k(  162) = (   0.2500000   0.4166667  -0.3333333), wk =   0.0069444
        k(  163) = (   0.2500000   0.4166667  -0.2500000), wk =   0.0069444
        k(  164) = (   0.2500000  -0.5000000  -0.5000000), wk =   0.0034722
        k(  165) = (   0.2500000  -0.5000000  -0.4166667), wk =   0.0069444
        k(  166) = (   0.2500000  -0.5000000  -0.3333333), wk =   0.0069444
        k(  167) = (   0.2500000  -0.5000000  -0.2500000), wk =   0.0034722
        k(  168) = (   0.2500000  -0.4166667  -0.4166667), wk =   0.0034722
        k(  169) = (   0.2500000  -0.4166667  -0.3333333), wk =   0.0069444
        k(  170) = (   0.2500000  -0.3333333  -0.3333333), wk =   0.0034722
        k(  171) = (   0.3333333   0.3333333   0.3333333), wk =   0.0011574
        k(  172) = (   0.3333333   0.3333333   0.4166667), wk =   0.0034722
        k(  173) = (   0.3333333   0.3333333  -0.5000000), wk =   0.0034722
        k(  174) = (   0.3333333   0.3333333  -0.4166667), wk =   0.0034722
        k(  175) = (   0.3333333   0.3333333  -0.3333333), wk =   0.0034722
        k(  176) = (   0.3333333   0.4166667   0.4166667), wk =   0.0034722
        k(  177) = (   0.3333333   0.4166667  -0.5000000), wk =   0.0069444
        k(  178) = (   0.3333333   0.4166667  -0.4166667), wk =   0.0069444
        k(  179) = (   0.3333333   0.4166667  -0.3333333), wk =   0.0069444
        k(  180) = (   0.3333333  -0.5000000  -0.5000000), wk =   0.0034722
        k(  181) = (   0.3333333  -0.5000000  -0.4166667), wk =   0.0069444
        k(  182) = (   0.3333333  -0.5000000  -0.3333333), wk =   0.0034722
        k(  183) = (   0.3333333  -0.4166667  -0.4166667), wk =   0.0034722
        k(  184) = (   0.4166667   0.4166667   0.4166667), wk =   0.0011574
        k(  185) = (   0.4166667   0.4166667  -0.5000000), wk =   0.0034722
        k(  186) = (   0.4166667   0.4166667  -0.4166667), wk =   0.0034722
        k(  187) = (   0.4166667  -0.5000000  -0.5000000), wk =   0.0034722
        k(  188) = (   0.4166667  -0.5000000  -0.4166667), wk =   0.0034722
        k(  189) = (  -0.5000000  -0.5000000  -0.5000000), wk =   0.0005787

     Dense  grid:   283987 G-vectors     FFT dimensions: ( 100, 100, 100)

     Smooth grid:    54643 G-vectors     FFT dimensions: (  60,  60,  60)

     Dynamical RAM for                 wfc:       4.80 MB

     Dynamical RAM for     wfc (w. buffer):    1817.73 MB

     Dynamical RAM for           str. fact:      13.00 MB

     Dynamical RAM for           local pot:       0.00 MB

     Dynamical RAM for          nlocal pot:      10.43 MB

     Dynamical RAM for                qrad:       7.91 MB

     Dynamical RAM for          rho,v,vnew:      71.78 MB

     Dynamical RAM for               rhoin:      23.93 MB

     Dynamical RAM for            rho*nmix:     138.67 MB

     Dynamical RAM for           G-vectors:      16.67 MB

     Dynamical RAM for          h,s,v(r/c):       0.39 MB

     Dynamical RAM for          <psi|beta>:       0.07 MB

     Dynamical RAM for                 psi:       9.59 MB

     Dynamical RAM for                hpsi:       9.59 MB

     Dynamical RAM for                spsi:       9.59 MB

     Dynamical RAM for      wfcinit/wfcrot:      12.17 MB

     Dynamical RAM for           addusdens:     836.33 MB

     Dynamical RAM for          addusforce:     879.71 MB

     Dynamical RAM for         addusstress:     877.49 MB

     Estimated static dynamical RAM per process >       1.98 GB

     Estimated max dynamical RAM per process >       2.97 GB

     Check: negative core charge=   -0.000005
     Generating pointlists ...
     new r_m :   0.1048 (alat units)  0.9789 (a.u.) for type    1
     new r_m :   0.1579 (alat units)  1.4750 (a.u.) for type    2
     new r_m :   0.1048 (alat units)  0.9789 (a.u.) for type    3

     Initial potential from superposition of free atoms

     starting charge      75.9991, renormalised to      76.0000
     Starting wfcs are   58 randomized atomic wfcs
     Checking if some PAW data can be deallocated... 

     total cpu time spent up to now is       15.8 secs

     Self-consistent Calculation
[tb_dev] Currently allocated     1.04E+01 Mbytes, locked:    0 /  18
[tb_pin] Currently allocated     0.00E+00 Mbytes, locked:    0 /   0

     iteration #  1     ecut=    90.00 Ry     beta= 0.40
     Davidson diagonalization with overlap

---- Real-time Memory Report at c_bands before calling an iterative solver
          3196 MiB given to the printing process from OS
         -1401 MiB allocation reported by mallinfo(arena+hblkhd)
         55623 MiB available memory on the node where the printing process lives
     GPU memory used/free/total (MiB): 1804 / 14476 / 16280
------------------
     ethr =  1.00E-02,  avg # of iterations =  2.9

     negative rho (up, down):  0.000E+00 2.816E-05

     total cpu time spent up to now is       36.1 secs

     total energy              =    -936.39531674 Ry
     estimated scf accuracy    <       1.33362459 Ry

     total magnetization       =     8.00 Bohr mag/cell
     absolute magnetization    =     8.02 Bohr mag/cell
[tb_dev] Currently allocated     1.04E+01 Mbytes, locked:    0 /  16
[tb_pin] Currently allocated     0.00E+00 Mbytes, locked:    0 /   0

     iteration #  2     ecut=    90.00 Ry     beta= 0.40
     Davidson diagonalization with overlap

---- Real-time Memory Report at c_bands before calling an iterative solver
          3492 MiB given to the printing process from OS
         -1333 MiB allocation reported by mallinfo(arena+hblkhd)
         55564 MiB available memory on the node where the printing process lives
     GPU memory used/free/total (MiB): 2860 / 13420 / 16280
------------------
     ethr =  1.75E-03,  avg # of iterations =  2.2

     negative rho (up, down):  0.000E+00 6.194E-05

     total cpu time spent up to now is       54.7 secs

     total energy              =    -936.71073338 Ry
     estimated scf accuracy    <       0.12611477 Ry

     total magnetization       =     8.01 Bohr mag/cell
     absolute magnetization    =     8.01 Bohr mag/cell
[tb_dev] Currently allocated     1.04E+01 Mbytes, locked:    0 /  16
[tb_pin] Currently allocated     0.00E+00 Mbytes, locked:    0 /   0

     iteration #  3     ecut=    90.00 Ry     beta= 0.40
     Davidson diagonalization with overlap

---- Real-time Memory Report at c_bands before calling an iterative solver
          3611 MiB given to the printing process from OS
         -1307 MiB allocation reported by mallinfo(arena+hblkhd)
         55541 MiB available memory on the node where the printing process lives
     GPU memory used/free/total (MiB): 2980 / 13300 / 16280
------------------
     ethr =  1.66E-04,  avg # of iterations =  6.0

     negative rho (up, down):  0.000E+00 8.847E-05

     total cpu time spent up to now is       82.5 secs

     total energy              =    -936.75948615 Ry
     estimated scf accuracy    <       0.04575714 Ry

     total magnetization       =     7.92 Bohr mag/cell
     absolute magnetization    =     7.92 Bohr mag/cell
[tb_dev] Currently allocated     1.04E+01 Mbytes, locked:    0 /  16
[tb_pin] Currently allocated     0.00E+00 Mbytes, locked:    0 /   0

     iteration #  4     ecut=    90.00 Ry     beta= 0.40
     Davidson diagonalization with overlap

---- Real-time Memory Report at c_bands before calling an iterative solver
          3703 MiB given to the printing process from OS
         -1276 MiB allocation reported by mallinfo(arena+hblkhd)
         55515 MiB available memory on the node where the printing process lives
     GPU memory used/free/total (MiB): 2994 / 13286 / 16280
------------------
     ethr =  6.02E-05,  avg # of iterations =  2.8

     negative rho (up, down):  0.000E+00 9.347E-05

     total cpu time spent up to now is      101.5 secs

     total energy              =    -936.76839694 Ry
     estimated scf accuracy    <       0.02020425 Ry

     total magnetization       =     7.43 Bohr mag/cell
     absolute magnetization    =     7.44 Bohr mag/cell
[tb_dev] Currently allocated     1.04E+01 Mbytes, locked:    0 /  16
[tb_pin] Currently allocated     0.00E+00 Mbytes, locked:    0 /   0

     iteration #  5     ecut=    90.00 Ry     beta= 0.40
     Davidson diagonalization with overlap

---- Real-time Memory Report at c_bands before calling an iterative solver
          3742 MiB given to the printing process from OS
         -1252 MiB allocation reported by mallinfo(arena+hblkhd)
         55492 MiB available memory on the node where the printing process lives
     GPU memory used/free/total (MiB): 2994 / 13286 / 16280
------------------
     ethr =  2.66E-05,  avg # of iterations =  2.6

     negative rho (up, down):  0.000E+00 9.363E-05

     total cpu time spent up to now is      119.0 secs

     total energy              =    -936.77255863 Ry
     estimated scf accuracy    <       0.00923607 Ry

     total magnetization       =     7.17 Bohr mag/cell
     absolute magnetization    =     7.19 Bohr mag/cell
[tb_dev] Currently allocated     1.04E+01 Mbytes, locked:    0 /  16
[tb_pin] Currently allocated     0.00E+00 Mbytes, locked:    0 /   0

     iteration #  6     ecut=    90.00 Ry     beta= 0.40
     Davidson diagonalization with overlap

---- Real-time Memory Report at c_bands before calling an iterative solver
          3770 MiB given to the printing process from OS
         -1233 MiB allocation reported by mallinfo(arena+hblkhd)
         55468 MiB available memory on the node where the printing process lives
     GPU memory used/free/total (MiB): 2994 / 13286 / 16280
------------------
     ethr =  1.22E-05,  avg # of iterations =  3.6

     negative rho (up, down):  0.000E+00 1.944E-04

     total cpu time spent up to now is      138.1 secs

     total energy              =    -936.75454159 Ry
     estimated scf accuracy    <       0.01244846 Ry

     total magnetization       =     6.60 Bohr mag/cell
     absolute magnetization    =     6.63 Bohr mag/cell
[tb_dev] Currently allocated     1.04E+01 Mbytes, locked:    0 /  16
[tb_pin] Currently allocated     0.00E+00 Mbytes, locked:    0 /   0

     iteration #  7     ecut=    90.00 Ry     beta= 0.40
     Davidson diagonalization with overlap

---- Real-time Memory Report at c_bands before calling an iterative solver
          3794 MiB given to the printing process from OS
         -1209 MiB allocation reported by mallinfo(arena+hblkhd)
         55446 MiB available memory on the node where the printing process lives
     GPU memory used/free/total (MiB): 2994 / 13286 / 16280
------------------
     ethr =  1.22E-05,  avg # of iterations =  2.2

     negative rho (up, down):  0.000E+00 5.589E-05

     total cpu time spent up to now is      157.0 secs

     total energy              =    -936.72619673 Ry
     estimated scf accuracy    <       0.02857788 Ry

     total magnetization       =     7.69 Bohr mag/cell
     absolute magnetization    =     7.70 Bohr mag/cell
[tb_dev] Currently allocated     1.04E+01 Mbytes, locked:    0 /  16
[tb_pin] Currently allocated     0.00E+00 Mbytes, locked:    0 /   0

     iteration #  8     ecut=    90.00 Ry     beta= 0.40
     Davidson diagonalization with overlap

---- Real-time Memory Report at c_bands before calling an iterative solver
          3817 MiB given to the printing process from OS
         -1185 MiB allocation reported by mallinfo(arena+hblkhd)
         55425 MiB available memory on the node where the printing process lives
     GPU memory used/free/total (MiB): 2994 / 13286 / 16280
------------------
     ethr =  1.22E-05,  avg # of iterations =  2.8

     negative rho (up, down):  0.000E+00 6.174E-05

     total cpu time spent up to now is      178.6 secs

     total energy              =    -936.79908256 Ry
     estimated scf accuracy    <       0.04025500 Ry

     total magnetization       =     3.68 Bohr mag/cell
     absolute magnetization    =     3.90 Bohr mag/cell
[tb_dev] Currently allocated     1.04E+01 Mbytes, locked:    0 /  16
[tb_pin] Currently allocated     0.00E+00 Mbytes, locked:    0 /   0

     iteration #  9     ecut=    90.00 Ry     beta= 0.40
     Davidson diagonalization with overlap

---- Real-time Memory Report at c_bands before calling an iterative solver
          3843 MiB given to the printing process from OS
         -1159 MiB allocation reported by mallinfo(arena+hblkhd)
         55398 MiB available memory on the node where the printing process lives
     GPU memory used/free/total (MiB): 2994 / 13286 / 16280
------------------
     ethr =  1.22E-05,  avg # of iterations =  1.0

     negative rho (up, down):  0.000E+00 7.312E-05

     total cpu time spent up to now is      193.4 secs

     total energy              =    -936.78465515 Ry
     estimated scf accuracy    <       0.03787062 Ry

     total magnetization       =     4.07 Bohr mag/cell
     absolute magnetization    =     4.24 Bohr mag/cell
[tb_dev] Currently allocated     1.04E+01 Mbytes, locked:    0 /  16
[tb_pin] Currently allocated     0.00E+00 Mbytes, locked:    0 /   0

     iteration # 10     ecut=    90.00 Ry     beta= 0.40
     Davidson diagonalization with overlap

---- Real-time Memory Report at c_bands before calling an iterative solver
          3868 MiB given to the printing process from OS
         -1136 MiB allocation reported by mallinfo(arena+hblkhd)
         55374 MiB available memory on the node where the printing process lives
     GPU memory used/free/total (MiB): 2994 / 13286 / 16280
------------------
     ethr =  1.22E-05,  avg # of iterations =  1.5

     negative rho (up, down):  0.000E+00 7.226E-05

     total cpu time spent up to now is      209.1 secs

     total energy              =    -936.78858299 Ry
     estimated scf accuracy    <       0.02773619 Ry

     total magnetization       =     5.00 Bohr mag/cell
     absolute magnetization    =     5.09 Bohr mag/cell
[tb_dev] Currently allocated     1.04E+01 Mbytes, locked:    0 /  16
[tb_pin] Currently allocated     0.00E+00 Mbytes, locked:    0 /   0

     iteration # 11     ecut=    90.00 Ry     beta= 0.40
     Davidson diagonalization with overlap

---- Real-time Memory Report at c_bands before calling an iterative solver
          3890 MiB given to the printing process from OS
         -1117 MiB allocation reported by mallinfo(arena+hblkhd)
         55355 MiB available memory on the node where the printing process lives
     GPU memory used/free/total (MiB): 2994 / 13286 / 16280
------------------
     ethr =  1.22E-05,  avg # of iterations =  1.0

     negative rho (up, down):  0.000E+00 6.603E-05

     total cpu time spent up to now is      223.8 secs

     total energy              =    -936.79301042 Ry
     estimated scf accuracy    <       0.02988416 Ry

     total magnetization       =     5.02 Bohr mag/cell
     absolute magnetization    =     5.10 Bohr mag/cell
[tb_dev] Currently allocated     1.04E+01 Mbytes, locked:    0 /  16
[tb_pin] Currently allocated     0.00E+00 Mbytes, locked:    0 /   0

     iteration # 12     ecut=    90.00 Ry     beta= 0.40
     Davidson diagonalization with overlap

---- Real-time Memory Report at c_bands before calling an iterative solver
          3909 MiB given to the printing process from OS
         -1098 MiB allocation reported by mallinfo(arena+hblkhd)
         55335 MiB available memory on the node where the printing process lives
     GPU memory used/free/total (MiB): 2994 / 13286 / 16280
------------------
     ethr =  1.22E-05,  avg # of iterations =  1.1

     negative rho (up, down):  0.000E+00 8.533E-05

     total cpu time spent up to now is      238.5 secs

     total energy              =    -936.76913608 Ry
     estimated scf accuracy    <       0.03735944 Ry

     total magnetization       =     4.53 Bohr mag/cell
     absolute magnetization    =     4.64 Bohr mag/cell
[tb_dev] Currently allocated     1.04E+01 Mbytes, locked:    0 /  16
[tb_pin] Currently allocated     0.00E+00 Mbytes, locked:    0 /   0

     iteration # 13     ecut=    90.00 Ry     beta= 0.40
     Davidson diagonalization with overlap

---- Real-time Memory Report at c_bands before calling an iterative solver
          3927 MiB given to the printing process from OS
         -1072 MiB allocation reported by mallinfo(arena+hblkhd)
         55314 MiB available memory on the node where the printing process lives
     GPU memory used/free/total (MiB): 2994 / 13286 / 16280
------------------
     ethr =  1.22E-05,  avg # of iterations =  2.0

     negative rho (up, down):  0.000E+00 1.493E-04

     total cpu time spent up to now is      255.2 secs

     total energy              =    -936.75912847 Ry
     estimated scf accuracy    <       0.01505922 Ry

     total magnetization       =     6.06 Bohr mag/cell
     absolute magnetization    =     6.11 Bohr mag/cell
[tb_dev] Currently allocated     1.04E+01 Mbytes, locked:    0 /  16
[tb_pin] Currently allocated     0.00E+00 Mbytes, locked:    0 /   0

     iteration # 14     ecut=    90.00 Ry     beta= 0.40
     Davidson diagonalization with overlap

---- Real-time Memory Report at c_bands before calling an iterative solver
          3950 MiB given to the printing process from OS
         -1053 MiB allocation reported by mallinfo(arena+hblkhd)
         55295 MiB available memory on the node where the printing process lives
     GPU memory used/free/total (MiB): 2994 / 13286 / 16280
------------------
     ethr =  1.22E-05,  avg # of iterations =  2.0

     negative rho (up, down):  0.000E+00 3.139E-04

     total cpu time spent up to now is      272.5 secs

     total energy              =    -936.75760925 Ry
     estimated scf accuracy    <       0.00999466 Ry

     total magnetization       =     7.34 Bohr mag/cell
     absolute magnetization    =     7.36 Bohr mag/cell
[tb_dev] Currently allocated     1.04E+01 Mbytes, locked:    0 /  16
[tb_pin] Currently allocated     0.00E+00 Mbytes, locked:    0 /   0

     iteration # 15     ecut=    90.00 Ry     beta= 0.40
     Davidson diagonalization with overlap

---- Real-time Memory Report at c_bands before calling an iterative solver
          3969 MiB given to the printing process from OS
         -1035 MiB allocation reported by mallinfo(arena+hblkhd)
         55278 MiB available memory on the node where the printing process lives
     GPU memory used/free/total (MiB): 2994 / 13286 / 16280
------------------
     ethr =  1.22E-05,  avg # of iterations =  1.6

     negative rho (up, down):  0.000E+00 6.482E-04

     total cpu time spent up to now is      288.3 secs

     total energy              =    -936.73685983 Ry
     estimated scf accuracy    <       0.01530595 Ry

     total magnetization       =     7.86 Bohr mag/cell
     absolute magnetization    =     7.88 Bohr mag/cell
[tb_dev] Currently allocated     1.04E+01 Mbytes, locked:    0 /  16
[tb_pin] Currently allocated     0.00E+00 Mbytes, locked:    0 /   0

     iteration # 16     ecut=    90.00 Ry     beta= 0.40
     Davidson diagonalization with overlap

---- Real-time Memory Report at c_bands before calling an iterative solver
          3987 MiB given to the printing process from OS
         -1016 MiB allocation reported by mallinfo(arena+hblkhd)
         55258 MiB available memory on the node where the printing process lives
     GPU memory used/free/total (MiB): 2994 / 13286 / 16280
------------------
     ethr =  1.22E-05,  avg # of iterations =  2.1

     negative rho (up, down):  0.000E+00 6.296E-04

     total cpu time spent up to now is      305.6 secs

     total energy              =    -936.74179651 Ry
     estimated scf accuracy    <       0.05814491 Ry

     total magnetization       =     8.01 Bohr mag/cell
     absolute magnetization    =     8.04 Bohr mag/cell
[tb_dev] Currently allocated     1.04E+01 Mbytes, locked:    0 /  16
[tb_pin] Currently allocated     0.00E+00 Mbytes, locked:    0 /   0

     iteration # 17     ecut=    90.00 Ry     beta= 0.40
     Davidson diagonalization with overlap

---- Real-time Memory Report at c_bands before calling an iterative solver
          4008 MiB given to the printing process from OS
          -993 MiB allocation reported by mallinfo(arena+hblkhd)
         55231 MiB available memory on the node where the printing process lives
     GPU memory used/free/total (MiB): 2994 / 13286 / 16280
------------------
     ethr =  1.22E-05,  avg # of iterations =  1.0

     negative rho (up, down):  0.000E+00 7.298E-04

     total cpu time spent up to now is      320.2 secs

     total energy              =    -936.73181640 Ry
     estimated scf accuracy    <       0.05479177 Ry

     total magnetization       =     8.01 Bohr mag/cell
     absolute magnetization    =     8.04 Bohr mag/cell
[tb_dev] Currently allocated     1.04E+01 Mbytes, locked:    0 /  16
[tb_pin] Currently allocated     0.00E+00 Mbytes, locked:    0 /   0

     iteration # 18     ecut=    90.00 Ry     beta= 0.40
     Davidson diagonalization with overlap

---- Real-time Memory Report at c_bands before calling an iterative solver
          4033 MiB given to the printing process from OS
          -974 MiB allocation reported by mallinfo(arena+hblkhd)
         55212 MiB available memory on the node where the printing process lives
     GPU memory used/free/total (MiB): 2994 / 13286 / 16280
------------------
     ethr =  1.22E-05,  avg # of iterations =  1.5

     negative rho (up, down):  0.000E+00 5.938E-04

     total cpu time spent up to now is      335.6 secs

     total energy              =    -936.74384678 Ry
     estimated scf accuracy    <       0.08172692 Ry

     total magnetization       =     8.00 Bohr mag/cell
     absolute magnetization    =     8.04 Bohr mag/cell
[tb_dev] Currently allocated     1.04E+01 Mbytes, locked:    0 /  16
[tb_pin] Currently allocated     0.00E+00 Mbytes, locked:    0 /   0

     iteration # 19     ecut=    90.00 Ry     beta= 0.40
     Davidson diagonalization with overlap

---- Real-time Memory Report at c_bands before calling an iterative solver
          4052 MiB given to the printing process from OS
          -956 MiB allocation reported by mallinfo(arena+hblkhd)
         55192 MiB available memory on the node where the printing process lives
     GPU memory used/free/total (MiB): 2994 / 13286 / 16280
------------------
     ethr =  1.22E-05,  avg # of iterations =  1.0

     negative rho (up, down):  0.000E+00 6.411E-04

     total cpu time spent up to now is      350.3 secs

     total energy              =    -936.74028907 Ry
     estimated scf accuracy    <       0.05083484 Ry

     total magnetization       =     8.01 Bohr mag/cell
     absolute magnetization    =     8.04 Bohr mag/cell
[tb_dev] Currently allocated     1.04E+01 Mbytes, locked:    0 /  16
[tb_pin] Currently allocated     0.00E+00 Mbytes, locked:    0 /   0

     iteration # 20     ecut=    90.00 Ry     beta= 0.40
     Davidson diagonalization with overlap

---- Real-time Memory Report at c_bands before calling an iterative solver
          4071 MiB given to the printing process from OS
          -934 MiB allocation reported by mallinfo(arena+hblkhd)
         55172 MiB available memory on the node where the printing process lives
     GPU memory used/free/total (MiB): 2994 / 13286 / 16280
------------------
     ethr =  1.22E-05,  avg # of iterations =  1.0

     negative rho (up, down):  0.000E+00 4.929E-04

     total cpu time spent up to now is      364.9 secs

     total energy              =    -936.75138307 Ry
     estimated scf accuracy    <       0.06115117 Ry

     total magnetization       =     8.01 Bohr mag/cell
     absolute magnetization    =     8.04 Bohr mag/cell
[tb_dev] Currently allocated     1.04E+01 Mbytes, locked:    0 /  16
[tb_pin] Currently allocated     0.00E+00 Mbytes, locked:    0 /   0

     iteration # 21     ecut=    90.00 Ry     beta= 0.40
     Davidson diagonalization with overlap

---- Real-time Memory Report at c_bands before calling an iterative solver
          4092 MiB given to the printing process from OS
          -915 MiB allocation reported by mallinfo(arena+hblkhd)
         55155 MiB available memory on the node where the printing process lives
     GPU memory used/free/total (MiB): 2994 / 13286 / 16280
------------------
     ethr =  1.22E-05,  avg # of iterations =  1.0

     negative rho (up, down):  0.000E+00 1.297E-04

     total cpu time spent up to now is      379.5 secs

     total energy              =    -936.76364747 Ry
     estimated scf accuracy    <       0.03627694 Ry

     total magnetization       =     7.99 Bohr mag/cell
     absolute magnetization    =     8.01 Bohr mag/cell
[tb_dev] Currently allocated     1.04E+01 Mbytes, locked:    0 /  16
[tb_pin] Currently allocated     0.00E+00 Mbytes, locked:    0 /   0

     iteration # 22     ecut=    90.00 Ry     beta= 0.40
     Davidson diagonalization with overlap

---- Real-time Memory Report at c_bands before calling an iterative solver
          4112 MiB given to the printing process from OS
          -896 MiB allocation reported by mallinfo(arena+hblkhd)
         55133 MiB available memory on the node where the printing process lives
     GPU memory used/free/total (MiB): 2994 / 13286 / 16280
------------------
     ethr =  1.22E-05,  avg # of iterations =  2.0

     negative rho (up, down):  0.000E+00 9.746E-05

     total cpu time spent up to now is      397.3 secs

     total energy              =    -936.77236179 Ry
     estimated scf accuracy    <       0.01147949 Ry

     total magnetization       =     7.13 Bohr mag/cell
     absolute magnetization    =     7.16 Bohr mag/cell
[tb_dev] Currently allocated     1.04E+01 Mbytes, locked:    0 /  16
[tb_pin] Currently allocated     0.00E+00 Mbytes, locked:    0 /   0

     iteration # 23     ecut=    90.00 Ry     beta= 0.40
     Davidson diagonalization with overlap

---- Real-time Memory Report at c_bands before calling an iterative solver
          4130 MiB given to the printing process from OS
          -877 MiB allocation reported by mallinfo(arena+hblkhd)
         55114 MiB available memory on the node where the printing process lives
     GPU memory used/free/total (MiB): 2994 / 13286 / 16280
------------------
     ethr =  1.22E-05,  avg # of iterations =  1.0

     negative rho (up, down):  0.000E+00 9.705E-05

     total cpu time spent up to now is      411.9 secs

     total energy              =    -936.77326481 Ry
     estimated scf accuracy    <       0.01175234 Ry

     total magnetization       =     6.80 Bohr mag/cell
     absolute magnetization    =     6.83 Bohr mag/cell
[tb_dev] Currently allocated     1.04E+01 Mbytes, locked:    0 /  16
[tb_pin] Currently allocated     0.00E+00 Mbytes, locked:    0 /   0

     iteration # 24     ecut=    90.00 Ry     beta= 0.40
     Davidson diagonalization with overlap

---- Real-time Memory Report at c_bands before calling an iterative solver
          4151 MiB given to the printing process from OS
          -851 MiB allocation reported by mallinfo(arena+hblkhd)
         55087 MiB available memory on the node where the printing process lives
     GPU memory used/free/total (MiB): 2994 / 13286 / 16280
------------------
     ethr =  1.22E-05,  avg # of iterations =  1.0

     negative rho (up, down):  0.000E+00 1.058E-04

     total cpu time spent up to now is      426.7 secs

     total energy              =    -936.77133242 Ry
     estimated scf accuracy    <       0.01207544 Ry

     total magnetization       =     6.77 Bohr mag/cell
     absolute magnetization    =     6.80 Bohr mag/cell
[tb_dev] Currently allocated     1.04E+01 Mbytes, locked:    0 /  16
[tb_pin] Currently allocated     0.00E+00 Mbytes, locked:    0 /   0

     iteration # 25     ecut=    90.00 Ry     beta= 0.40
     Davidson diagonalization with overlap

---- Real-time Memory Report at c_bands before calling an iterative solver
          4176 MiB given to the printing process from OS
          -832 MiB allocation reported by mallinfo(arena+hblkhd)
         55068 MiB available memory on the node where the printing process lives
     GPU memory used/free/total (MiB): 2994 / 13286 / 16280
------------------
     ethr =  1.22E-05,  avg # of iterations =  1.0

     negative rho (up, down):  0.000E+00 1.938E-04

     total cpu time spent up to now is      441.4 secs

     total energy              =    -936.76403865 Ry
     estimated scf accuracy    <       0.01086682 Ry

     total magnetization       =     6.98 Bohr mag/cell
     absolute magnetization    =     7.00 Bohr mag/cell
[tb_dev] Currently allocated     1.04E+01 Mbytes, locked:    0 /  16
[tb_pin] Currently allocated     0.00E+00 Mbytes, locked:    0 /   0

     iteration # 26     ecut=    90.00 Ry     beta= 0.40
     Davidson diagonalization with overlap

---- Real-time Memory Report at c_bands before calling an iterative solver
          4176 MiB given to the printing process from OS
          -814 MiB allocation reported by mallinfo(arena+hblkhd)
         55051 MiB available memory on the node where the printing process lives
     GPU memory used/free/total (MiB): 2994 / 13286 / 16280
------------------
     ethr =  1.22E-05,  avg # of iterations =  1.5

     negative rho (up, down):  0.000E+00 1.667E-04

     total cpu time spent up to now is      456.7 secs

     total energy              =    -936.76772165 Ry
     estimated scf accuracy    <       0.01108528 Ry

     total magnetization       =     7.55 Bohr mag/cell
     absolute magnetization    =     7.57 Bohr mag/cell
[tb_dev] Currently allocated     1.04E+01 Mbytes, locked:    0 /  16
[tb_pin] Currently allocated     0.00E+00 Mbytes, locked:    0 /   0

     iteration # 27     ecut=    90.00 Ry     beta= 0.40
     Davidson diagonalization with overlap

---- Real-time Memory Report at c_bands before calling an iterative solver
          4192 MiB given to the printing process from OS
          -795 MiB allocation reported by mallinfo(arena+hblkhd)
         55031 MiB available memory on the node where the printing process lives
     GPU memory used/free/total (MiB): 2994 / 13286 / 16280
------------------
     ethr =  1.22E-05,  avg # of iterations =  1.0

     negative rho (up, down):  0.000E+00 1.605E-04

     total cpu time spent up to now is      471.4 secs

     total energy              =    -936.76828130 Ry
     estimated scf accuracy    <       0.01033292 Ry

     total magnetization       =     7.39 Bohr mag/cell
     absolute magnetization    =     7.41 Bohr mag/cell
[tb_dev] Currently allocated     1.04E+01 Mbytes, locked:    0 /  16
[tb_pin] Currently allocated     0.00E+00 Mbytes, locked:    0 /   0

     iteration # 28     ecut=    90.00 Ry     beta= 0.40
     Davidson diagonalization with overlap

---- Real-time Memory Report at c_bands before calling an iterative solver
          4216 MiB given to the printing process from OS
          -772 MiB allocation reported by mallinfo(arena+hblkhd)
         55009 MiB available memory on the node where the printing process lives
     GPU memory used/free/total (MiB): 2994 / 13286 / 16280
------------------
     ethr =  1.22E-05,  avg # of iterations =  1.0

     negative rho (up, down):  0.000E+00 3.262E-04

     total cpu time spent up to now is      486.3 secs

     total energy              =    -936.75675557 Ry
     estimated scf accuracy    <       0.01038383 Ry

     total magnetization       =     7.35 Bohr mag/cell
     absolute magnetization    =     7.37 Bohr mag/cell
[tb_dev] Currently allocated     1.04E+01 Mbytes, locked:    0 /  16
[tb_pin] Currently allocated     0.00E+00 Mbytes, locked:    0 /   0

     iteration # 29     ecut=    90.00 Ry     beta= 0.40
     Davidson diagonalization with overlap

---- Real-time Memory Report at c_bands before calling an iterative solver
          4237 MiB given to the printing process from OS
          -751 MiB allocation reported by mallinfo(arena+hblkhd)
         54986 MiB available memory on the node where the printing process lives
     GPU memory used/free/total (MiB): 2994 / 13286 / 16280
------------------
     ethr =  1.22E-05,  avg # of iterations =  1.5

     negative rho (up, down):  0.000E+00 4.008E-04

     total cpu time spent up to now is      502.0 secs

     total energy              =    -936.75683182 Ry
     estimated scf accuracy    <       0.01610136 Ry

     total magnetization       =     7.89 Bohr mag/cell
     absolute magnetization    =     7.91 Bohr mag/cell
[tb_dev] Currently allocated     1.04E+01 Mbytes, locked:    0 /  16
[tb_pin] Currently allocated     0.00E+00 Mbytes, locked:    0 /   0

     iteration # 30     ecut=    90.00 Ry     beta= 0.40
     Davidson diagonalization with overlap

---- Real-time Memory Report at c_bands before calling an iterative solver
          4255 MiB given to the printing process from OS
          -732 MiB allocation reported by mallinfo(arena+hblkhd)
         54968 MiB available memory on the node where the printing process lives
     GPU memory used/free/total (MiB): 2994 / 13286 / 16280
------------------
     ethr =  1.22E-05,  avg # of iterations =  1.0

     negative rho (up, down):  0.000E+00 5.037E-04

     total cpu time spent up to now is      516.7 secs

     total energy              =    -936.75037528 Ry
     estimated scf accuracy    <       0.02327501 Ry

     total magnetization       =     7.94 Bohr mag/cell
     absolute magnetization    =     7.96 Bohr mag/cell
[tb_dev] Currently allocated     1.04E+01 Mbytes, locked:    0 /  16
[tb_pin] Currently allocated     0.00E+00 Mbytes, locked:    0 /   0

     iteration # 31     ecut=    90.00 Ry     beta= 0.40
     Davidson diagonalization with overlap

---- Real-time Memory Report at c_bands before calling an iterative solver
          4274 MiB given to the printing process from OS
          -713 MiB allocation reported by mallinfo(arena+hblkhd)
         54950 MiB available memory on the node where the printing process lives
     GPU memory used/free/total (MiB): 2994 / 13286 / 16280
------------------
     ethr =  1.22E-05,  avg # of iterations =  1.0

     negative rho (up, down):  0.000E+00 1.905E-04

     total cpu time spent up to now is      531.4 secs

     total energy              =    -936.76326630 Ry
     estimated scf accuracy    <       0.03745814 Ry

     total magnetization       =     8.00 Bohr mag/cell
     absolute magnetization    =     8.02 Bohr mag/cell
[tb_dev] Currently allocated     1.04E+01 Mbytes, locked:    0 /  16
[tb_pin] Currently allocated     0.00E+00 Mbytes, locked:    0 /   0

     iteration # 32     ecut=    90.00 Ry     beta= 0.40
     Davidson diagonalization with overlap

---- Real-time Memory Report at c_bands before calling an iterative solver
          4298 MiB given to the printing process from OS
          -690 MiB allocation reported by mallinfo(arena+hblkhd)
         54926 MiB available memory on the node where the printing process lives
     GPU memory used/free/total (MiB): 2994 / 13286 / 16280
------------------
     ethr =  1.22E-05,  avg # of iterations =  2.0

     negative rho (up, down):  0.000E+00 1.399E-04

     total cpu time spent up to now is      548.5 secs

     total energy              =    -936.76886582 Ry
     estimated scf accuracy    <       0.01119497 Ry

     total magnetization       =     7.51 Bohr mag/cell
     absolute magnetization    =     7.53 Bohr mag/cell
[tb_dev] Currently allocated     1.04E+01 Mbytes, locked:    0 /  16
[tb_pin] Currently allocated     0.00E+00 Mbytes, locked:    0 /   0

     iteration # 33     ecut=    90.00 Ry     beta= 0.40
     Davidson diagonalization with overlap

---- Real-time Memory Report at c_bands before calling an iterative solver
          4316 MiB given to the printing process from OS
          -672 MiB allocation reported by mallinfo(arena+hblkhd)
         54906 MiB available memory on the node where the printing process lives
     GPU memory used/free/total (MiB): 2994 / 13286 / 16280
------------------
     ethr =  1.22E-05,  avg # of iterations =  1.0

     negative rho (up, down):  0.000E+00 9.719E-05

     total cpu time spent up to now is      563.2 secs

     total energy              =    -936.77215045 Ry
     estimated scf accuracy    <       0.01009360 Ry

     total magnetization       =     7.22 Bohr mag/cell
     absolute magnetization    =     7.24 Bohr mag/cell
[tb_dev] Currently allocated     1.04E+01 Mbytes, locked:    0 /  16
[tb_pin] Currently allocated     0.00E+00 Mbytes, locked:    0 /   0

     iteration # 34     ecut=    90.00 Ry     beta= 0.40
     Davidson diagonalization with overlap

---- Real-time Memory Report at c_bands before calling an iterative solver
          4340 MiB given to the printing process from OS
          -648 MiB allocation reported by mallinfo(arena+hblkhd)
         54886 MiB available memory on the node where the printing process lives
     GPU memory used/free/total (MiB): 2994 / 13286 / 16280
------------------
     ethr =  1.22E-05,  avg # of iterations =  1.0

     negative rho (up, down):  0.000E+00 9.626E-05

     total cpu time spent up to now is      577.8 secs

     total energy              =    -936.77366090 Ry
     estimated scf accuracy    <       0.01223536 Ry

     total magnetization       =     6.78 Bohr mag/cell
     absolute magnetization    =     6.81 Bohr mag/cell
[tb_dev] Currently allocated     1.04E+01 Mbytes, locked:    0 /  16
[tb_pin] Currently allocated     0.00E+00 Mbytes, locked:    0 /   0

     iteration # 35     ecut=    90.00 Ry     beta= 0.40
     Davidson diagonalization with overlap

---- Real-time Memory Report at c_bands before calling an iterative solver
          4358 MiB given to the printing process from OS
          -630 MiB allocation reported by mallinfo(arena+hblkhd)
         54869 MiB available memory on the node where the printing process lives
     GPU memory used/free/total (MiB): 2994 / 13286 / 16280
------------------
     ethr =  1.22E-05,  avg # of iterations =  1.0

     negative rho (up, down):  0.000E+00 8.316E-05

     total cpu time spent up to now is      592.5 secs

     total energy              =    -936.77734444 Ry
     estimated scf accuracy    <       0.01227223 Ry

     total magnetization       =     6.72 Bohr mag/cell
     absolute magnetization    =     6.75 Bohr mag/cell
[tb_dev] Currently allocated     1.04E+01 Mbytes, locked:    0 /  16
[tb_pin] Currently allocated     0.00E+00 Mbytes, locked:    0 /   0

     iteration # 36     ecut=    90.00 Ry     beta= 0.40
     Davidson diagonalization with overlap

---- Real-time Memory Report at c_bands before calling an iterative solver
          4377 MiB given to the printing process from OS
          -611 MiB allocation reported by mallinfo(arena+hblkhd)
         54829 MiB available memory on the node where the printing process lives
     GPU memory used/free/total (MiB): 2994 / 13286 / 16280
------------------
     ethr =  1.22E-05,  avg # of iterations =  1.5

     negative rho (up, down):  0.000E+00 6.148E-05

     total cpu time spent up to now is      608.2 secs

     total energy              =    -936.78577592 Ry
     estimated scf accuracy    <       0.01484649 Ry

     total magnetization       =     5.84 Bohr mag/cell
     absolute magnetization    =     5.89 Bohr mag/cell
[tb_dev] Currently allocated     1.04E+01 Mbytes, locked:    0 /  16
[tb_pin] Currently allocated     0.00E+00 Mbytes, locked:    0 /   0

     iteration # 37     ecut=    90.00 Ry     beta= 0.40
     Davidson diagonalization with overlap

---- Real-time Memory Report at c_bands before calling an iterative solver
          4401 MiB given to the printing process from OS
          -587 MiB allocation reported by mallinfo(arena+hblkhd)
         54812 MiB available memory on the node where the printing process lives
     GPU memory used/free/total (MiB): 2994 / 13286 / 16280
------------------
     ethr =  1.22E-05,  avg # of iterations =  2.1

     negative rho (up, down):  0.000E+00 5.753E-05

     total cpu time spent up to now is      625.7 secs

     total energy              =    -936.80201363 Ry
     estimated scf accuracy    <       0.03135334 Ry

     total magnetization       =     4.17 Bohr mag/cell
     absolute magnetization    =     4.31 Bohr mag/cell
[tb_dev] Currently allocated     1.04E+01 Mbytes, locked:    0 /  16
[...]
     estimated scf accuracy    <       0.01603916 Ry

     total magnetization       =     6.31 Bohr mag/cell
     absolute magnetization    =     6.35 Bohr mag/cell
[tb_dev] Currently allocated     1.04E+01 Mbytes, locked:    0 /  16
[tb_pin] Currently allocated     0.00E+00 Mbytes, locked:    0 /   0

     iteration # 66     ecut=    90.00 Ry     beta= 0.40
     Davidson diagonalization with overlap

---- Real-time Memory Report at c_bands before calling an iterative solver
          4989 MiB given to the printing process from OS
             1 MiB allocation reported by mallinfo(arena+hblkhd)
         54237 MiB available memory on the node where the printing process lives
     GPU memory used/free/total (MiB): 2994 / 13286 / 16280
------------------
     ethr =  1.22E-05,  avg # of iterations =  1.0

     negative rho (up, down):  0.000E+00 8.674E-05

     total cpu time spent up to now is     1169.4 secs

     total energy              =    -936.77850031 Ry
     estimated scf accuracy    <       0.01397155 Ry

     total magnetization       =     6.45 Bohr mag/cell
     absolute magnetization    =     6.48 Bohr mag/cell
[tb_dev] Currently allocated     1.04E+01 Mbytes, locked:    0 /  16
[tb_pin] Currently allocated     0.00E+00 Mbytes, locked:    0 /   0

     iteration # 67     ecut=    90.00 Ry     beta= 0.40
     Davidson diagonalization with overlap

---- Real-time Memory Report at c_bands before calling an iterative solver
          5013 MiB given to the printing process from OS
            25 MiB allocation reported by mallinfo(arena+hblkhd)
         54198 MiB available memory on the node where the printing process lives
     GPU memory used/free/total (MiB): 2994 / 13286 / 16280
------------------
     ethr =  1.22E-05,  avg # of iterations =  1.0

     negative rho (up, down):  0.000E+00 3.616E-04

     total cpu time spent up to now is     1184.0 secs

     total energy              =    -936.73257387 Ry
     estimated scf accuracy    <       0.01359757 Ry

     total magnetization       =     6.21 Bohr mag/cell
     absolute magnetization    =     6.26 Bohr mag/cell
[tb_dev] Currently allocated     1.04E+01 Mbytes, locked:    0 /  16
[tb_pin] Currently allocated     0.00E+00 Mbytes, locked:    0 /   0

     iteration # 68     ecut=    90.00 Ry     beta= 0.40
     Davidson diagonalization with overlap

---- Real-time Memory Report at c_bands before calling an iterative solver
          5032 MiB given to the printing process from OS
            43 MiB allocation reported by mallinfo(arena+hblkhd)
         54187 MiB available memory on the node where the printing process lives
     GPU memory used/free/total (MiB): 2994 / 13286 / 16280
------------------
     ethr =  1.22E-05,  avg # of iterations =  3.1

     negative rho (up, down):  0.000E+00 8.623E-04

     total cpu time spent up to now is     1204.9 secs

     total energy              =    -936.71200567 Ry
     estimated scf accuracy    <       0.01886828 Ry

     total magnetization       =     7.91 Bohr mag/cell
     absolute magnetization    =     7.93 Bohr mag/cell
[tb_dev] Currently allocated     1.04E+01 Mbytes, locked:    0 /  16
[tb_pin] Currently allocated     0.00E+00 Mbytes, locked:    0 /   0

     iteration # 69     ecut=    90.00 Ry     beta= 0.40
     Davidson diagonalization with overlap

---- Real-time Memory Report at c_bands before calling an iterative solver
          5051 MiB given to the printing process from OS
            62 MiB allocation reported by mallinfo(arena+hblkhd)
         54166 MiB available memory on the node where the printing process lives
     GPU memory used/free/total (MiB): 2994 / 13286 / 16280
------------------
     ethr =  1.22E-05,  avg # of iterations =  2.6

     negative rho (up, down):  0.000E+00 9.785E-05

     total cpu time spent up to now is     1224.4 secs

     total energy              =    -936.75750264 Ry
     estimated scf accuracy    <       0.10720057 Ry

     total magnetization       =     8.00 Bohr mag/cell
     absolute magnetization    =     8.05 Bohr mag/cell
[tb_dev] Currently allocated     1.04E+01 Mbytes, locked:    0 /  16
[tb_pin] Currently allocated     0.00E+00 Mbytes, locked:    0 /   0

     iteration # 70     ecut=    90.00 Ry     beta= 0.40
     Davidson diagonalization with overlap

---- Real-time Memory Report at c_bands before calling an iterative solver
          5075 MiB given to the printing process from OS
            86 MiB allocation reported by mallinfo(arena+hblkhd)
         54144 MiB available memory on the node where the printing process lives
     GPU memory used/free/total (MiB): 2994 / 13286 / 16280
------------------
     ethr =  1.22E-05,  avg # of iterations =  2.5

     negative rho (up, down):  0.000E+00 8.984E-05

     total cpu time spent up to now is     1245.1 secs

     total energy              =    -936.77570962 Ry
     estimated scf accuracy    <       0.01024843 Ry

     total magnetization       =     6.83 Bohr mag/cell
     absolute magnetization    =     6.86 Bohr mag/cell
[tb_dev] Currently allocated     1.04E+01 Mbytes, locked:    0 /  16
[tb_pin] Currently allocated     0.00E+00 Mbytes, locked:    0 /   0

     iteration # 71     ecut=    90.00 Ry     beta= 0.40
     Davidson diagonalization with overlap

---- Real-time Memory Report at c_bands before calling an iterative solver
          5095 MiB given to the printing process from OS
           107 MiB allocation reported by mallinfo(arena+hblkhd)
         54125 MiB available memory on the node where the printing process lives
     GPU memory used/free/total (MiB): 2994 / 13286 / 16280
------------------
     ethr =  1.22E-05,  avg # of iterations =  1.5

     negative rho (up, down):  0.000E+00 7.854E-05

     total cpu time spent up to now is     1260.4 secs

     total energy              =    -936.78122276 Ry
     estimated scf accuracy    <       0.01181786 Ry

     total magnetization       =     6.34 Bohr mag/cell
     absolute magnetization    =     6.38 Bohr mag/cell
[tb_dev] Currently allocated     1.04E+01 Mbytes, locked:    0 /  16
[tb_pin] Currently allocated     0.00E+00 Mbytes, locked:    0 /   0

     iteration # 72     ecut=    90.00 Ry     beta= 0.40
     Davidson diagonalization with overlap

---- Real-time Memory Report at c_bands before calling an iterative solver
          5115 MiB given to the printing process from OS
           126 MiB allocation reported by mallinfo(arena+hblkhd)
         54107 MiB available memory on the node where the printing process lives
     GPU memory used/free/total (MiB): 2994 / 13286 / 16280
------------------
     ethr =  1.22E-05,  avg # of iterations =  1.5

     negative rho (up, down):  0.000E+00 6.520E-05

     total cpu time spent up to now is     1276.2 secs

     total energy              =    -936.79074816 Ry
     estimated scf accuracy    <       0.01951519 Ry

     total magnetization       =     5.45 Bohr mag/cell
     absolute magnetization    =     5.52 Bohr mag/cell
[tb_dev] Currently allocated     1.04E+01 Mbytes, locked:    0 /  16
[tb_pin] Currently allocated     0.00E+00 Mbytes, locked:    0 /   0

     iteration # 73     ecut=    90.00 Ry     beta= 0.40
     Davidson diagonalization with overlap

---- Real-time Memory Report at c_bands before calling an iterative solver
          5133 MiB given to the printing process from OS
           144 MiB allocation reported by mallinfo(arena+hblkhd)
         54090 MiB available memory on the node where the printing process lives
     GPU memory used/free/total (MiB): 2994 / 13286 / 16280
------------------
     ethr =  1.22E-05,  avg # of iterations =  1.5

     negative rho (up, down):  0.000E+00 7.080E-05

     total cpu time spent up to now is     1292.0 secs

     total energy              =    -936.78987683 Ry
     estimated scf accuracy    <       0.03296048 Ry

     total magnetization       =     4.36 Bohr mag/cell
     absolute magnetization    =     4.50 Bohr mag/cell
[tb_dev] Currently allocated     1.04E+01 Mbytes, locked:    0 /  16
[tb_pin] Currently allocated     0.00E+00 Mbytes, locked:    0 /   0

     iteration # 74     ecut=    90.00 Ry     beta= 0.40
     Davidson diagonalization with overlap

---- Real-time Memory Report at c_bands before calling an iterative solver
          5157 MiB given to the printing process from OS
           169 MiB allocation reported by mallinfo(arena+hblkhd)
         54066 MiB available memory on the node where the printing process lives
     GPU memory used/free/total (MiB): 2994 / 13286 / 16280
------------------
     ethr =  1.22E-05,  avg # of iterations =  1.0

     negative rho (up, down):  0.000E+00 8.668E-05

     total cpu time spent up to now is     1306.8 secs

     total energy              =    -936.77232122 Ry
     estimated scf accuracy    <       0.02659096 Ry

     total magnetization       =     4.82 Bohr mag/cell
     absolute magnetization    =     4.92 Bohr mag/cell
[tb_dev] Currently allocated     1.04E+01 Mbytes, locked:    0 /  16
[tb_pin] Currently allocated     0.00E+00 Mbytes, locked:    0 /   0

     iteration # 75     ecut=    90.00 Ry     beta= 0.40
     Davidson diagonalization with overlap

---- Real-time Memory Report at c_bands before calling an iterative solver
          5176 MiB given to the printing process from OS
           187 MiB allocation reported by mallinfo(arena+hblkhd)
         54050 MiB available memory on the node where the printing process lives
     GPU memory used/free/total (MiB): 2994 / 13286 / 16280
------------------
     ethr =  1.22E-05,  avg # of iterations =  1.8

     negative rho (up, down):  0.000E+00 2.549E-04

     total cpu time spent up to now is     1323.1 secs

     total energy              =    -936.74478312 Ry
     estimated scf accuracy    <       0.01413655 Ry

     total magnetization       =     6.06 Bohr mag/cell
     absolute magnetization    =     6.11 Bohr mag/cell
[tb_dev] Currently allocated     1.04E+01 Mbytes, locked:    0 /  16
[tb_pin] Currently allocated     0.00E+00 Mbytes, locked:    0 /   0

     iteration # 76     ecut=    90.00 Ry     beta= 0.40
     Davidson diagonalization with overlap

---- Real-time Memory Report at c_bands before calling an iterative solver
          5195 MiB given to the printing process from OS
           206 MiB allocation reported by mallinfo(arena+hblkhd)
         54031 MiB available memory on the node where the printing process lives
     GPU memory used/free/total (MiB): 2994 / 13286 / 16280
------------------
     ethr =  1.22E-05,  avg # of iterations =  2.0

     negative rho (up, down):  0.000E+00 8.683E-04

     total cpu time spent up to now is     1341.2 secs

     total energy              =    -936.70718834 Ry
     estimated scf accuracy    <       0.01294365 Ry

     total magnetization       =     7.73 Bohr mag/cell
     absolute magnetization    =     7.75 Bohr mag/cell
[tb_dev] Currently allocated     1.04E+01 Mbytes, locked:    0 /  16
[tb_pin] Currently allocated     0.00E+00 Mbytes, locked:    0 /   0

     iteration # 77     ecut=    90.00 Ry     beta= 0.40
     Davidson diagonalization with overlap

---- Real-time Memory Report at c_bands before calling an iterative solver
          5218 MiB given to the printing process from OS
           229 MiB allocation reported by mallinfo(arena+hblkhd)
         54008 MiB available memory on the node where the printing process lives
     GPU memory used/free/total (MiB): 2994 / 13286 / 16280
------------------
     ethr =  1.22E-05,  avg # of iterations =  2.6

     negative rho (up, down):  0.000E+00 6.373E-04

     total cpu time spent up to now is     1361.0 secs

     total energy              =    -936.74005589 Ry
     estimated scf accuracy    <       0.10801686 Ry

     total magnetization       =     8.00 Bohr mag/cell
     absolute magnetization    =     8.05 Bohr mag/cell
[tb_dev] Currently allocated     1.04E+01 Mbytes, locked:    0 /  16
[tb_pin] Currently allocated     0.00E+00 Mbytes, locked:    0 /   0

     iteration # 78     ecut=    90.00 Ry     beta= 0.40
     Davidson diagonalization with overlap

---- Real-time Memory Report at c_bands before calling an iterative solver
          5236 MiB given to the printing process from OS
           248 MiB allocation reported by mallinfo(arena+hblkhd)
         53986 MiB available memory on the node where the printing process lives
     GPU memory used/free/total (MiB): 2994 / 13286 / 16280
------------------
     ethr =  1.22E-05,  avg # of iterations =  1.5

     negative rho (up, down):  0.000E+00 4.006E-04

     total cpu time spent up to now is     1376.4 secs

     total energy              =    -936.75586386 Ry
     estimated scf accuracy    <       0.05532614 Ry

     total magnetization       =     8.01 Bohr mag/cell
     absolute magnetization    =     8.04 Bohr mag/cell
[tb_dev] Currently allocated     1.04E+01 Mbytes, locked:    0 /  16
[tb_pin] Currently allocated     0.00E+00 Mbytes, locked:    0 /   0

     iteration # 79     ecut=    90.00 Ry     beta= 0.40
     Davidson diagonalization with overlap

---- Real-time Memory Report at c_bands before calling an iterative solver
          5256 MiB given to the printing process from OS
           267 MiB allocation reported by mallinfo(arena+hblkhd)
         53968 MiB available memory on the node where the printing process lives
     GPU memory used/free/total (MiB): 2994 / 13286 / 16280
------------------
     ethr =  1.22E-05,  avg # of iterations =  1.8

     negative rho (up, down):  0.000E+00 3.670E-04

     total cpu time spent up to now is     1392.7 secs

     total energy              =    -936.75832826 Ry
     estimated scf accuracy    <       0.02200367 Ry

     total magnetization       =     7.93 Bohr mag/cell
     absolute magnetization    =     7.95 Bohr mag/cell
[tb_dev] Currently allocated     1.04E+01 Mbytes, locked:    0 /  16
[tb_pin] Currently allocated     0.00E+00 Mbytes, locked:    0 /   0

     iteration # 80     ecut=    90.00 Ry     beta= 0.40
     Davidson diagonalization with overlap

---- Real-time Memory Report at c_bands before calling an iterative solver
          5280 MiB given to the printing process from OS
           291 MiB allocation reported by mallinfo(arena+hblkhd)
         53946 MiB available memory on the node where the printing process lives
     GPU memory used/free/total (MiB): 2994 / 13286 / 16280
------------------
     ethr =  1.22E-05,  avg # of iterations =  1.0

     negative rho (up, down):  0.000E+00 1.173E-04

     total cpu time spent up to now is     1407.4 secs

     total energy              =    -936.76563264 Ry
     estimated scf accuracy    <       0.01913388 Ry

     total magnetization       =     7.90 Bohr mag/cell
     absolute magnetization    =     7.92 Bohr mag/cell

     End of self-consistent calculation

     convergence NOT achieved after  80 iterations: stopping

     Writing config to output data dir ./out/aiida.save/
 
     init_run     :     43.54s CPU     15.11s WALL (       1 calls)
     electrons    :   2573.33s CPU   1391.64s WALL (       1 calls)

     Called by init_run:
     wfcinit      :      8.45s CPU     10.33s WALL (       1 calls)
                                       10.33s GPU  (       1 calls)
     wfcinit:atom :      0.15s CPU      0.29s WALL (     378 calls)
                                        0.29s GPU  (     378 calls)
     wfcinit:wfcr :      5.23s CPU      6.09s WALL (     378 calls)
                                        6.08s GPU  (     378 calls)
     potinit      :     20.68s CPU      1.92s WALL (       1 calls)
     hinit0       :      7.88s CPU      1.92s WALL (       1 calls)

     Called by electrons:
     c_bands      :   1063.55s CPU   1066.59s WALL (      80 calls)
     sum_band     :    185.40s CPU    203.48s WALL (      80 calls)
     v_of_rho     :     68.67s CPU      6.20s WALL (      81 calls)
     v_h          :     15.24s CPU      1.37s WALL (      81 calls)
     v_xc         :     53.42s CPU      4.82s WALL (      81 calls)
     newd         :     73.31s CPU      7.00s WALL (      81 calls)
                                        6.99s GPU  (      81 calls)
     PAW_pot      :   1141.57s CPU    104.53s WALL (      81 calls)
     mix_rho      :     34.86s CPU      3.34s WALL (      80 calls)

     Called by c_bands:
     init_us_2    :     67.83s CPU     73.56s WALL (   60858 calls)
     init_us_2:gp :     66.78s CPU     72.56s WALL (   60858 calls)
     cegterg      :    925.97s CPU    926.23s WALL (   30240 calls)

     Called by sum_band:
     sum_band:wei :      1.15s CPU      1.15s WALL (      80 calls)
                                        1.15s GPU  (      80 calls)
     sum_band:loo :    176.00s CPU    193.94s WALL (      80 calls)
                                      193.95s GPU  (      80 calls)
     sum_band:buf :     42.07s CPU     44.33s WALL (   30240 calls)
                                       44.14s GPU  (   30240 calls)
     sum_band:ini :     31.52s CPU     36.29s WALL (   30240 calls)
                                       36.12s GPU  (   30240 calls)
     sum_band:cal :      0.84s CPU      8.35s WALL (   30240 calls)
                                        5.03s GPU  (   30240 calls)
     sum_band:bec :      8.08s CPU      8.92s WALL (   30240 calls)
                                        8.72s GPU  (   30240 calls)
     addusdens    :      4.63s CPU      4.75s WALL (      80 calls)
                                        4.75s GPU  (      80 calls)
     addusd:skk   :      0.04s CPU      0.04s WALL (     240 calls)
                                        0.04s GPU  (     240 calls)

     Called by *egterg:
     cdiaghg      :    285.05s CPU    308.42s WALL (   88926 calls)
                                      307.83s GPU  (   88926 calls)
     cegterg:over :     16.65s CPU     16.27s WALL (   58686 calls)
     cegterg:upda :     29.89s CPU     30.55s WALL (   58686 calls)
     cegterg:last :     11.61s CPU     11.32s WALL (   50400 calls)
     h_psi        :    529.19s CPU    509.83s WALL (   89304 calls)
                                      508.84s GPU  (   89304 calls)
     s_psi        :     12.56s CPU     23.69s WALL (   89304 calls)
                                       21.88s GPU  (   89304 calls)
     g_psi        :      0.42s CPU      2.40s WALL (   58686 calls)
                                        2.02s GPU  (   58686 calls)

     Called by h_psi:
     h_psi:calbec :      2.86s CPU     15.28s WALL (   89304 calls)
                                       14.69s GPU  (   89304 calls)
     vloc_psi     :    474.68s CPU    458.34s WALL (   89304 calls)
                                      457.78s GPU  (   89304 calls)
     add_vuspsi   :     20.96s CPU     29.01s WALL (   89304 calls)
                                       28.43s GPU  (   89304 calls)

     General routines
     calbec       :      2.60s CPU      2.55s WALL (  119544 calls)
     fft          :      2.98s CPU      0.78s WALL (    2023 calls)
                                        0.60s GPU  (    1861 calls)
     ffts         :      0.08s CPU      0.05s WALL (     322 calls)
                                        0.01s GPU  (     160 calls)
     fftw         :     10.74s CPU    375.49s WALL (  543460 calls)
                                      372.19s GPU  (  543460 calls)
     interpolate  :      8.00s CPU      0.72s WALL (     162 calls)
     davcio       :      0.38s CPU      1.14s WALL (     396 calls)
 
     Parallel routines

     PAW routines
     PAW_pot      :   1141.57s CPU    104.53s WALL (      81 calls)
     PAW_symme    :      0.56s CPU      0.09s WALL (     161 calls)
 
     PWSCF        :  43m40.28s CPU  23m28.95s WALL

 
   This run was terminated on:  18:46:38  22Oct2023            

=------------------------------------------------------------------------------=
   JOB DONE.
=------------------------------------------------------------------------------=
