
     Program PWSCF v.7.2 starts on 23Oct2023 at 17:56: 9 

     This program is part of the open-source Quantum ESPRESSO suite
     for quantum simulation of materials; please cite
         "P. Giannozzi et al., J. Phys.:Condens. Matter 21 395502 (2009);
         "P. Giannozzi et al., J. Phys.:Condens. Matter 29 465901 (2017);
         "P. Giannozzi et al., J. Chem. Phys. 152 154105 (2020);
          URL http://www.quantum-espresso.org", 
     in publications or presentations arising from this work. More details at
     http://www.quantum-espresso.org/quote

     Parallel version (MPI & OpenMP), running on      12 processor cores
     Number of MPI processes:                 1
     Threads/MPI process:                    12

     MPI processes distributed on     1 nodes
     48467 MiB available memory on the printing compute node when the environment starts
 
     Reading input from aiida.in

     Current dimensions of program PWSCF are:
     Max number of different atomic species (ntypx) = 10
     Max number of k-points (npk) =  40000
     Max angular momentum in pseudopotentials (lmaxx) =  4
     file Al.pbesol-n-kjpaw_psl.1.0.0.UPF: wavefunction(s)  3S 3P renormalized
     Message from routine setup:
     using ibrav=0 with symmetry is DISCOURAGED, use correct ibrav instead
 
     Subspace diagonalization in iterative solution of the eigenvalue problem:
     a serial algorithm will be used

 
     G-vector sticks info
     --------------------
     sticks:   dense  smooth     PW     G-vecs:    dense   smooth      PW
     Sum        1615    1003    301                42255    20875    3479
 
     Using Slab Decomposition
 


     bravais-lattice index     =            0
     lattice parameter (alat)  =       8.5252  a.u.
     unit-cell volume          =     438.1256 (a.u.)^3
     number of atoms/cell      =            4
     number of atomic types    =            4
     number of electrons       =        42.00
     number of Kohn-Sham states=           25
     kinetic-energy cutoff     =      50.0000  Ry
     charge density cutoff     =     320.0000  Ry
     scf convergence threshold =      8.0E-10
     mixing beta               =       0.4000
     number of iterations used =            8  plain     mixing
     Exchange-correlation= SLA  PW   PSX  PSC
                           (   1   4  10   8   0   0   0)

     GPU acceleration is ACTIVE.


     GPU used by master process:

        Device Number: 0
        Device name: Tesla P100-PCIE-16GB
        Compute capability : 60
        Ratio of single to double precision performance  : 2
        Memory Clock Rate (KHz): 715000
        Memory Bus Width (bits): 4096
        Peak Memory Bandwidth (GB/s): 732.16

     celldm(1)=   8.525199  celldm(2)=   0.000000  celldm(3)=   0.000000
     celldm(4)=   0.000000  celldm(5)=   0.000000  celldm(6)=   0.000000

     crystal axes: (cart. coord. in units of alat)
               a(1) = (   0.000000   0.707107   0.707107 )  
               a(2) = (   0.707107   0.000000   0.707107 )  
               a(3) = (   0.707107   0.707107   0.000000 )  

     reciprocal axes: (cart. coord. in units 2 pi/alat)
               b(1) = ( -0.707107  0.707107  0.707107 )  
               b(2) = (  0.707107 -0.707107  0.707107 )  
               b(3) = (  0.707107  0.707107 -0.707107 )  


     PseudoPot. # 1 for Al read from file:
     ./pseudo/Al.pbesol-n-kjpaw_psl.1.0.0.UPF
     MD5 check sum: 3401bcfaaf5f9b08e46a00870a1ef39d
     Pseudo is Projector augmented-wave + core cor, Zval =  3.0
     Generated using "atomic" code by A. Dal Corso  v.6.0 svn rev. 13079
     Shape of augmentation charge: PSQ
     Using radial grid of 1135 points,  6 beta functions with: 
                l(1) =   0
                l(2) =   0
                l(3) =   1
                l(4) =   1
                l(5) =   2
                l(6) =   2
     Q(r) pseudized with 0 coefficients 


     PseudoPot. # 2 for Cr read from file:
     ./pseudo/cr_pbesol_v1.5.uspp.F.UPF
     MD5 check sum: a621641e0be27168676a837af8893d0f
     Pseudo is Ultrasoft + core correction, Zval = 14.0
     Generated by new atomic code, or converted to UPF format
     Using radial grid of  857 points,  6 beta functions with: 
                l(1) =   0
                l(2) =   0
                l(3) =   1
                l(4) =   1
                l(5) =   2
                l(6) =   2
     Q(r) pseudized with  8 coefficients,  rinner =    0.950   0.950   0.950
                                                       0.950   0.950

     PseudoPot. # 3 for Hf read from file:
     ./pseudo/Hf-sp.oncvpsp.upf
     MD5 check sum: 3619c98de2ee908b1d969add25be4863
     Pseudo is Norm-conserving + core correction, Zval = 12.0
     Generated using ONCVPSP code by D. R. Hamann
     Using radial grid of 1656 points,  8 beta functions with: 
                l(1) =   0
                l(2) =   0
                l(3) =   1
                l(4) =   1
                l(5) =   2
                l(6) =   2
                l(7) =   3
                l(8) =   3

     PseudoPot. # 4 for V  read from file:
     ./pseudo/v_pbesol_v1.4.uspp.F.UPF
     MD5 check sum: 72fa7d0034c41d8adc50bbc8c632b9f9
     Pseudo is Ultrasoft + core correction, Zval = 13.0
     Generated by new atomic code, or converted to UPF format
     Using radial grid of  853 points,  6 beta functions with: 
                l(1) =   0
                l(2) =   0
                l(3) =   1
                l(4) =   1
                l(5) =   2
                l(6) =   2
     Q(r) pseudized with  8 coefficients,  rinner =    1.100   1.100   1.100
                                                       1.100   1.100

     atomic species   valence    mass     pseudopotential
        Al             3.00    26.98154     Al( 1.00)
        Cr            14.00    51.99610     Cr( 1.00)
        Hf            12.00   178.49000     Hf( 1.00)
        V             13.00    50.94150     V ( 1.00)

     Starting magnetic structure 
     atomic species   magnetization
        Al           0.100
        Cr           0.357
        Hf           0.417
        V            0.385

     24 Sym. Ops. (no inversion) found


                                    s                        frac. trans.

      isym =  1     identity                                     

 cryst.   s( 1) = (     1          0          0      )
                  (     0          1          0      )
                  (     0          0          1      )

 cart.    s( 1) = (  1.0000000 -0.0000000  0.0000000 )
                  ( -0.0000000  1.0000000  0.0000000 )
                  ( -0.0000000  0.0000000  1.0000000 )


      isym =  2     180 deg rotation - cart. axis [0,0,1]        

 cryst.   s( 2) = (     0          1         -1      )
                  (     1          0         -1      )
                  (     0          0         -1      )

 cart.    s( 2) = ( -1.0000000  0.0000000  0.0000000 )
                  (  0.0000000 -1.0000000  0.0000000 )
                  (  0.0000000 -0.0000000  1.0000000 )


      isym =  3     180 deg rotation - cart. axis [0,1,0]        

 cryst.   s( 3) = (     0         -1          1      )
                  (     0         -1          0      )
                  (     1         -1          0      )

 cart.    s( 3) = ( -1.0000000 -0.0000000 -0.0000000 )
                  (  0.0000000  1.0000000 -0.0000000 )
                  (  0.0000000  0.0000000 -1.0000000 )


      isym =  4     180 deg rotation - cart. axis [1,0,0]        

 cryst.   s( 4) = (    -1          0          0      )
                  (    -1          0          1      )
                  (    -1          1          0      )

 cart.    s( 4) = (  1.0000000  0.0000000 -0.0000000 )
                  ( -0.0000000 -1.0000000 -0.0000000 )
                  ( -0.0000000 -0.0000000 -1.0000000 )


      isym =  5     120 deg rotation - cart. axis [-1,-1,-1]     

 cryst.   s( 5) = (     0          0          1      )
                  (     1          0          0      )
                  (     0          1          0      )

 cart.    s( 5) = (  0.0000000  1.0000000 -0.0000000 )
                  (  0.0000000 -0.0000000  1.0000000 )
                  (  1.0000000 -0.0000000  0.0000000 )


      isym =  6     120 deg rotation - cart. axis [-1,1,1]       

 cryst.   s( 6) = (     1         -1          0      )
                  (     0         -1          1      )
                  (     0         -1          0      )

 cart.    s( 6) = ( -0.0000000 -1.0000000 -0.0000000 )
                  ( -0.0000000  0.0000000  1.0000000 )
                  ( -1.0000000  0.0000000  0.0000000 )


      isym =  7     120 deg rotation - cart. axis [1,1,-1]       

 cryst.   s( 7) = (    -1          1          0      )
                  (    -1          0          0      )
                  (    -1          0          1      )

 cart.    s( 7) = ( -0.0000000  1.0000000  0.0000000 )
                  ( -0.0000000 -0.0000000 -1.0000000 )
                  ( -1.0000000 -0.0000000 -0.0000000 )


      isym =  8     120 deg rotation - cart. axis [1,-1,1]       

 cryst.   s( 8) = (     0          0         -1      )
                  (     0          1         -1      )
                  (     1          0         -1      )

 cart.    s( 8) = (  0.0000000 -1.0000000  0.0000000 )
                  (  0.0000000  0.0000000 -1.0000000 )
                  (  1.0000000  0.0000000 -0.0000000 )


      isym =  9     120 deg rotation - cart. axis [1,1,1]        

 cryst.   s( 9) = (     0          1          0      )
                  (     0          0          1      )
                  (     1          0          0      )

 cart.    s( 9) = ( -0.0000000  0.0000000  1.0000000 )
                  (  1.0000000  0.0000000 -0.0000000 )
                  (  0.0000000  1.0000000 -0.0000000 )


      isym = 10     120 deg rotation - cart. axis [-1,1,-1]      

 cryst.   s(10) = (    -1          0          1      )
                  (    -1          1          0      )
                  (    -1          0          0      )

 cart.    s(10) = (  0.0000000 -0.0000000  1.0000000 )
                  ( -1.0000000 -0.0000000 -0.0000000 )
                  ( -0.0000000 -1.0000000 -0.0000000 )


      isym = 11     120 deg rotation - cart. axis [1,-1,-1]      

 cryst.   s(11) = (     1          0         -1      )
                  (     0          0         -1      )
                  (     0          1         -1      )

 cart.    s(11) = (  0.0000000  0.0000000 -1.0000000 )
                  ( -1.0000000  0.0000000  0.0000000 )
                  ( -0.0000000  1.0000000  0.0000000 )


      isym = 12     120 deg rotation - cart. axis [-1,-1,1]      

 cryst.   s(12) = (     0         -1          0      )
                  (     1         -1          0      )
                  (     0         -1          1      )

 cart.    s(12) = ( -0.0000000 -0.0000000 -1.0000000 )
                  (  1.0000000 -0.0000000  0.0000000 )
                  (  0.0000000 -1.0000000  0.0000000 )


      isym = 13     inv. 180 deg rotation - cart. axis [1,1,0]   

 cryst.   s(13) = (     1          0         -1      )
                  (     0          1         -1      )
                  (     0          0         -1      )

 cart.    s(13) = (  0.0000000 -1.0000000  0.0000000 )
                  ( -1.0000000  0.0000000  0.0000000 )
                  ( -0.0000000  0.0000000  1.0000000 )


      isym = 14     inv. 180 deg rotation - cart. axis [1,-1,0]  

 cryst.   s(14) = (     0          1          0      )
                  (     1          0          0      )
                  (     0          0          1      )

 cart.    s(14) = ( -0.0000000  1.0000000  0.0000000 )
                  (  1.0000000 -0.0000000  0.0000000 )
                  (  0.0000000 -0.0000000  1.0000000 )


      isym = 15     inv.  90 deg rotation - cart. axis [0,0,-1]  

 cryst.   s(15) = (     0         -1          0      )
                  (     0         -1          1      )
                  (     1         -1          0      )

 cart.    s(15) = ( -0.0000000 -1.0000000 -0.0000000 )
                  (  1.0000000  0.0000000 -0.0000000 )
                  (  0.0000000  0.0000000 -1.0000000 )


      isym = 16     inv.  90 deg rotation - cart. axis [0,0,1]   

 cryst.   s(16) = (    -1          0          1      )
                  (    -1          0          0      )
                  (    -1          1          0      )

 cart.    s(16) = (  0.0000000  1.0000000 -0.0000000 )
                  ( -1.0000000 -0.0000000 -0.0000000 )
                  ( -0.0000000 -0.0000000 -1.0000000 )


      isym = 17     inv. 180 deg rotation - cart. axis [1,0,1]   

 cryst.   s(17) = (     1         -1          0      )
                  (     0         -1          0      )
                  (     0         -1          1      )

 cart.    s(17) = ( -0.0000000 -0.0000000 -1.0000000 )
                  ( -0.0000000  1.0000000  0.0000000 )
                  ( -1.0000000  0.0000000  0.0000000 )


      isym = 18     inv. 180 deg rotation - cart. axis [-1,0,1]  

 cryst.   s(18) = (     0          0          1      )
                  (     0          1          0      )
                  (     1          0          0      )

 cart.    s(18) = (  0.0000000 -0.0000000  1.0000000 )
                  (  0.0000000  1.0000000 -0.0000000 )
                  (  1.0000000  0.0000000 -0.0000000 )


      isym = 19     inv.  90 deg rotation - cart. axis [0,1,0]   

 cryst.   s(19) = (     0          0         -1      )
                  (     1          0         -1      )
                  (     0          1         -1      )

 cart.    s(19) = (  0.0000000  0.0000000 -1.0000000 )
                  (  0.0000000 -1.0000000  0.0000000 )
                  (  1.0000000 -0.0000000  0.0000000 )


      isym = 20     inv.  90 deg rotation - cart. axis [0,-1,0]  

 cryst.   s(20) = (    -1          1          0      )
                  (    -1          0          1      )
                  (    -1          0          0      )

 cart.    s(20) = ( -0.0000000  0.0000000  1.0000000 )
                  ( -0.0000000 -1.0000000 -0.0000000 )
                  ( -1.0000000 -0.0000000 -0.0000000 )


      isym = 21     inv. 180 deg rotation - cart. axis [0,1,1]   

 cryst.   s(21) = (    -1          0          0      )
                  (    -1          1          0      )
                  (    -1          0          1      )

 cart.    s(21) = (  1.0000000 -0.0000000  0.0000000 )
                  ( -0.0000000 -0.0000000 -1.0000000 )
                  ( -0.0000000 -1.0000000 -0.0000000 )


      isym = 22     inv. 180 deg rotation - cart. axis [0,1,-1]  

 cryst.   s(22) = (     1          0          0      )
                  (     0          0          1      )
                  (     0          1          0      )

 cart.    s(22) = (  1.0000000  0.0000000 -0.0000000 )
                  ( -0.0000000  0.0000000  1.0000000 )
                  ( -0.0000000  1.0000000  0.0000000 )


      isym = 23     inv.  90 deg rotation - cart. axis [-1,0,0]  

 cryst.   s(23) = (     0          1         -1      )
                  (     0          0         -1      )
                  (     1          0         -1      )

 cart.    s(23) = ( -1.0000000  0.0000000  0.0000000 )
                  (  0.0000000  0.0000000 -1.0000000 )
                  (  0.0000000  1.0000000 -0.0000000 )


      isym = 24     inv.  90 deg rotation - cart. axis [1,0,0]   

 cryst.   s(24) = (     0         -1          1      )
                  (     1         -1          0      )
                  (     0         -1          0      )

 cart.    s(24) = ( -1.0000000 -0.0000000 -0.0000000 )
                  (  0.0000000 -0.0000000  1.0000000 )
                  (  0.0000000 -1.0000000  0.0000000 )


   Cartesian axes

     site n.     atom                  positions (alat units)
         1           Hf  tau(   1) = (   0.3535534   0.3535534   0.3535534  )
         2           Al  tau(   2) = (   0.3535534   0.3535534   1.0606602  )
         3           V   tau(   3) = (   0.7071068   0.0000000   0.0000000  )
         4           Cr  tau(   4) = (   0.0000000   0.0000000   0.0000000  )

   Crystallographic axes

     site n.     atom                  positions (cryst. coord.)
         1           Hf  tau(   1) = (  0.2500000  0.2500000  0.2500000  )
         2           Al  tau(   2) = (  0.7500000  0.7500000 -0.2500000  )
         3           V   tau(   3) = ( -0.5000000  0.5000000  0.5000000  )
         4           Cr  tau(   4) = (  0.0000000  0.0000000  0.0000000  )

     number of k points=    72  Marzari-Vanderbilt smearing, width (Ry)=  0.0100
                       cart. coord. in units 2pi/alat
        k(    1) = (   0.0000000   0.0000000   0.0000000), wk =   0.0005787
        k(    2) = (   0.0589256   0.0589256  -0.0589256), wk =   0.0046296
        k(    3) = (   0.1178511   0.1178511  -0.1178511), wk =   0.0046296
        k(    4) = (   0.1767767   0.1767767  -0.1767767), wk =   0.0046296
        k(    5) = (   0.2357023   0.2357023  -0.2357023), wk =   0.0046296
        k(    6) = (   0.2946278   0.2946278  -0.2946278), wk =   0.0046296
        k(    7) = (  -0.3535534  -0.3535534   0.3535534), wk =   0.0023148
        k(    8) = (   0.1178511   0.0000000  -0.0000000), wk =   0.0034722
        k(    9) = (   0.1767767   0.0589256  -0.0589256), wk =   0.0138889
        k(   10) = (   0.2357023   0.1178511  -0.1178511), wk =   0.0138889
        k(   11) = (   0.2946278   0.1767767  -0.1767767), wk =   0.0138889
        k(   12) = (   0.3535534   0.2357023  -0.2357023), wk =   0.0138889
        k(   13) = (  -0.2946278  -0.4124790   0.4124790), wk =   0.0138889
        k(   14) = (  -0.2357023  -0.3535534   0.3535534), wk =   0.0138889
        k(   15) = (  -0.1767767  -0.2946278   0.2946278), wk =   0.0138889
        k(   16) = (  -0.1178511  -0.2357023   0.2357023), wk =   0.0138889
        k(   17) = (  -0.0589256  -0.1767767   0.1767767), wk =   0.0138889
        k(   18) = (  -0.0000000  -0.1178511   0.1178511), wk =   0.0069444
        k(   19) = (   0.2357023   0.0000000  -0.0000000), wk =   0.0034722
        k(   20) = (   0.2946278   0.0589256  -0.0589256), wk =   0.0138889
        k(   21) = (   0.3535534   0.1178511  -0.1178511), wk =   0.0138889
        k(   22) = (   0.4124790   0.1767767  -0.1767767), wk =   0.0138889
        k(   23) = (  -0.2357023  -0.4714045   0.4714045), wk =   0.0138889
        k(   24) = (  -0.1767767  -0.4124790   0.4124790), wk =   0.0138889
        k(   25) = (  -0.1178511  -0.3535534   0.3535534), wk =   0.0138889
        k(   26) = (  -0.0589256  -0.2946278   0.2946278), wk =   0.0138889
        k(   27) = (   0.0000000  -0.2357023   0.2357023), wk =   0.0069444
        k(   28) = (   0.3535534   0.0000000   0.0000000), wk =   0.0034722
        k(   29) = (   0.4124790   0.0589256  -0.0589256), wk =   0.0138889
        k(   30) = (   0.4714045   0.1178511  -0.1178511), wk =   0.0138889
        k(   31) = (  -0.1767767  -0.5303301   0.5303301), wk =   0.0138889
        k(   32) = (  -0.1178511  -0.4714045   0.4714045), wk =   0.0138889
        k(   33) = (  -0.0589256  -0.4124790   0.4124790), wk =   0.0138889
        k(   34) = (   0.0000000  -0.3535534   0.3535534), wk =   0.0069444
        k(   35) = (   0.4714045   0.0000000  -0.0000000), wk =   0.0034722
        k(   36) = (   0.5303301   0.0589256  -0.0589256), wk =   0.0138889
        k(   37) = (  -0.1178511  -0.5892557   0.5892557), wk =   0.0138889
        k(   38) = (  -0.0589256  -0.5303301   0.5303301), wk =   0.0138889
        k(   39) = (  -0.0000000  -0.4714045   0.4714045), wk =   0.0069444
        k(   40) = (   0.5892557   0.0000000  -0.0000000), wk =   0.0034722
        k(   41) = (  -0.0589256  -0.6481812   0.6481812), wk =   0.0138889
        k(   42) = (   0.0000000  -0.5892557   0.5892557), wk =   0.0069444
        k(   43) = (  -0.7071068   0.0000000   0.0000000), wk =   0.0017361
        k(   44) = (   0.2357023   0.1178511   0.0000000), wk =   0.0138889
        k(   45) = (   0.2946278   0.1767767  -0.0589256), wk =   0.0277778
        k(   46) = (   0.3535534   0.2357023  -0.1178511), wk =   0.0277778
        k(   47) = (  -0.2946278  -0.4124790   0.5303301), wk =   0.0277778
        k(   48) = (  -0.2357023  -0.3535534   0.4714045), wk =   0.0138889
        k(   49) = (   0.3535534   0.1178511  -0.0000000), wk =   0.0138889
        k(   50) = (   0.4124790   0.1767767  -0.0589256), wk =   0.0277778
        k(   51) = (  -0.2357023  -0.4714045   0.5892557), wk =   0.0277778
        k(   52) = (  -0.1767767  -0.4124790   0.5303301), wk =   0.0277778
        k(   53) = (  -0.1178511  -0.3535534   0.4714045), wk =   0.0277778
        k(   54) = (  -0.0589256  -0.2946278   0.4124790), wk =   0.0277778
        k(   55) = (   0.0000000  -0.2357023   0.3535534), wk =   0.0138889
        k(   56) = (   0.4714045   0.1178511  -0.0000000), wk =   0.0138889
        k(   57) = (  -0.1767767  -0.5303301   0.6481812), wk =   0.0277778
        k(   58) = (  -0.1178511  -0.4714045   0.5892557), wk =   0.0277778
        k(   59) = (  -0.0589256  -0.4124790   0.5303301), wk =   0.0277778
        k(   60) = (   0.0000000  -0.3535534   0.4714045), wk =   0.0138889
        k(   61) = (  -0.1178511  -0.5892557   0.7071068), wk =   0.0138889
        k(   62) = (  -0.0589256  -0.5303301   0.6481812), wk =   0.0277778
        k(   63) = (  -0.0000000  -0.4714045   0.5892557), wk =   0.0138889
        k(   64) = (  -0.7071068   0.1178511  -0.0000000), wk =   0.0069444
        k(   65) = (  -0.2357023  -0.4714045   0.7071068), wk =   0.0138889
        k(   66) = (  -0.1767767  -0.4124790   0.6481812), wk =   0.0277778
        k(   67) = (  -0.1178511  -0.3535534   0.5892557), wk =   0.0138889
        k(   68) = (  -0.1178511  -0.4714045   0.7071068), wk =   0.0138889
        k(   69) = (  -0.0589256  -0.4124790   0.6481812), wk =   0.0277778
        k(   70) = (   0.0000000  -0.3535534   0.5892557), wk =   0.0138889
        k(   71) = (  -0.7071068   0.2357023   0.0000000), wk =   0.0069444
        k(   72) = (  -0.7071068   0.3535534   0.0000000), wk =   0.0034722

                       cryst. coord.
        k(    1) = (   0.0000000   0.0000000   0.0000000), wk =   0.0005787
        k(    2) = (   0.0000000   0.0000000   0.0833333), wk =   0.0046296
        k(    3) = (   0.0000000   0.0000000   0.1666667), wk =   0.0046296
        k(    4) = (   0.0000000   0.0000000   0.2500000), wk =   0.0046296
        k(    5) = (   0.0000000   0.0000000   0.3333333), wk =   0.0046296
        k(    6) = (  -0.0000000  -0.0000000   0.4166667), wk =   0.0046296
        k(    7) = (  -0.0000000  -0.0000000  -0.5000000), wk =   0.0023148
        k(    8) = (  -0.0000000   0.0833333   0.0833333), wk =   0.0034722
        k(    9) = (   0.0000000   0.0833333   0.1666667), wk =   0.0138889
        k(   10) = (  -0.0000000   0.0833333   0.2500000), wk =   0.0138889
        k(   11) = (   0.0000000   0.0833333   0.3333333), wk =   0.0138889
        k(   12) = (  -0.0000000   0.0833333   0.4166667), wk =   0.0138889
        k(   13) = (  -0.0000000   0.0833333  -0.5000000), wk =   0.0138889
        k(   14) = (  -0.0000000   0.0833333  -0.4166667), wk =   0.0138889
        k(   15) = (  -0.0000000   0.0833333  -0.3333333), wk =   0.0138889
        k(   16) = (  -0.0000000   0.0833333  -0.2500000), wk =   0.0138889
        k(   17) = (  -0.0000000   0.0833333  -0.1666667), wk =   0.0138889
        k(   18) = (   0.0000000   0.0833333  -0.0833333), wk =   0.0069444
        k(   19) = (  -0.0000000   0.1666667   0.1666667), wk =   0.0034722
        k(   20) = (  -0.0000000   0.1666667   0.2500000), wk =   0.0138889
        k(   21) = (   0.0000000   0.1666667   0.3333333), wk =   0.0138889
        k(   22) = (  -0.0000000   0.1666667   0.4166667), wk =   0.0138889
        k(   23) = (  -0.0000000   0.1666667  -0.5000000), wk =   0.0138889
        k(   24) = (  -0.0000000   0.1666667  -0.4166667), wk =   0.0138889
        k(   25) = (  -0.0000000   0.1666667  -0.3333333), wk =   0.0138889
        k(   26) = (   0.0000000   0.1666667  -0.2500000), wk =   0.0138889
        k(   27) = (  -0.0000000   0.1666667  -0.1666667), wk =   0.0069444
        k(   28) = (   0.0000000   0.2500000   0.2500000), wk =   0.0034722
        k(   29) = (   0.0000000   0.2500000   0.3333333), wk =   0.0138889
        k(   30) = (  -0.0000000   0.2500000   0.4166667), wk =   0.0138889
        k(   31) = (   0.0000000   0.2500000  -0.5000000), wk =   0.0138889
        k(   32) = (  -0.0000000   0.2500000  -0.4166667), wk =   0.0138889
        k(   33) = (  -0.0000000   0.2500000  -0.3333333), wk =   0.0138889
        k(   34) = (  -0.0000000   0.2500000  -0.2500000), wk =   0.0069444
        k(   35) = (  -0.0000000   0.3333333   0.3333333), wk =   0.0034722
        k(   36) = (  -0.0000000   0.3333333   0.4166667), wk =   0.0138889
        k(   37) = (   0.0000000   0.3333333  -0.5000000), wk =   0.0138889
        k(   38) = (  -0.0000000   0.3333333  -0.4166667), wk =   0.0138889
        k(   39) = (   0.0000000   0.3333333  -0.3333333), wk =   0.0069444
        k(   40) = (   0.0000000   0.4166667   0.4166667), wk =   0.0034722
        k(   41) = (  -0.0000000   0.4166667  -0.5000000), wk =   0.0138889
        k(   42) = (   0.0000000   0.4166667  -0.4166667), wk =   0.0069444
        k(   43) = (   0.0000000  -0.5000000  -0.5000000), wk =   0.0017361
        k(   44) = (   0.0833333   0.1666667   0.2500000), wk =   0.0138889
        k(   45) = (   0.0833333   0.1666667   0.3333333), wk =   0.0277778
        k(   46) = (   0.0833333   0.1666667   0.4166667), wk =   0.0277778
        k(   47) = (   0.0833333   0.1666667  -0.5000000), wk =   0.0277778
        k(   48) = (   0.0833333   0.1666667  -0.4166667), wk =   0.0138889
        k(   49) = (   0.0833333   0.2500000   0.3333333), wk =   0.0138889
        k(   50) = (   0.0833333   0.2500000   0.4166667), wk =   0.0277778
        k(   51) = (   0.0833333   0.2500000  -0.5000000), wk =   0.0277778
        k(   52) = (   0.0833333   0.2500000  -0.4166667), wk =   0.0277778
        k(   53) = (   0.0833333   0.2500000  -0.3333333), wk =   0.0277778
        k(   54) = (   0.0833333   0.2500000  -0.2500000), wk =   0.0277778
        k(   55) = (   0.0833333   0.2500000  -0.1666667), wk =   0.0138889
        k(   56) = (   0.0833333   0.3333333   0.4166667), wk =   0.0138889
        k(   57) = (   0.0833333   0.3333333  -0.5000000), wk =   0.0277778
        k(   58) = (   0.0833333   0.3333333  -0.4166667), wk =   0.0277778
        k(   59) = (   0.0833333   0.3333333  -0.3333333), wk =   0.0277778
        k(   60) = (   0.0833333   0.3333333  -0.2500000), wk =   0.0138889
        k(   61) = (   0.0833333   0.4166667  -0.5000000), wk =   0.0138889
        k(   62) = (   0.0833333   0.4166667  -0.4166667), wk =   0.0277778
        k(   63) = (   0.0833333   0.4166667  -0.3333333), wk =   0.0138889
        k(   64) = (   0.0833333  -0.5000000  -0.4166667), wk =   0.0069444
        k(   65) = (   0.1666667   0.3333333  -0.5000000), wk =   0.0138889
        k(   66) = (   0.1666667   0.3333333  -0.4166667), wk =   0.0277778
        k(   67) = (   0.1666667   0.3333333  -0.3333333), wk =   0.0138889
        k(   68) = (   0.1666667   0.4166667  -0.4166667), wk =   0.0138889
        k(   69) = (   0.1666667   0.4166667  -0.3333333), wk =   0.0277778
        k(   70) = (   0.1666667   0.4166667  -0.2500000), wk =   0.0138889
        k(   71) = (   0.1666667  -0.5000000  -0.3333333), wk =   0.0069444
        k(   72) = (   0.2500000  -0.5000000  -0.2500000), wk =   0.0034722

     Dense  grid:    42255 G-vectors     FFT dimensions: (  50,  50,  50)

     Smooth grid:    20875 G-vectors     FFT dimensions: (  40,  40,  40)

     Dynamical RAM for                 wfc:       1.00 MB

     Dynamical RAM for     wfc (w. buffer):     144.70 MB

     Dynamical RAM for           str. fact:       2.58 MB

     Dynamical RAM for           local pot:       0.00 MB

     Dynamical RAM for          nlocal pot:       3.43 MB

     Dynamical RAM for                qrad:      13.78 MB

     Dynamical RAM for          rho,v,vnew:       9.59 MB

     Dynamical RAM for               rhoin:       3.20 MB

     Dynamical RAM for            rho*nmix:      20.63 MB

     Dynamical RAM for           G-vectors:       2.58 MB

     Dynamical RAM for          h,s,v(r/c):       0.11 MB

     Dynamical RAM for          <psi|beta>:       0.03 MB

     Dynamical RAM for                 psi:       2.00 MB

     Dynamical RAM for                hpsi:       2.00 MB

     Dynamical RAM for                spsi:       2.00 MB

     Dynamical RAM for      wfcinit/wfcrot:       2.74 MB

     Dynamical RAM for           addusdens:     128.95 MB

     Dynamical RAM for          addusforce:     128.96 MB

     Dynamical RAM for         addusstress:     146.04 MB

     Estimated static dynamical RAM per process >     188.80 MB

     Estimated max dynamical RAM per process >     355.47 MB

     Check: negative core charge=   -0.000003
     Generating pointlists ...
     new r_m :   0.2526 (alat units)  2.1535 (a.u.) for type    1
     new r_m :   0.2526 (alat units)  2.1535 (a.u.) for type    2
     new r_m :   0.2526 (alat units)  2.1535 (a.u.) for type    3
     new r_m :   0.2526 (alat units)  2.1535 (a.u.) for type    4

     Initial potential from superposition of free atoms

     starting charge      40.9950, renormalised to      42.0000

     negative rho (up, down):  1.165E-03 5.364E-04
     Starting wfcs are   34 randomized atomic wfcs
     Checking if some PAW data can be deallocated... 

     total cpu time spent up to now is        5.4 secs

     per-process dynamical memory:   881.0 Mb

     Self-consistent Calculation
[tb_dev] Currently allocated     1.13E+00 Mbytes, locked:    0 /   8
[tb_pin] Currently allocated     0.00E+00 Mbytes, locked:    0 /   0

     iteration #  1     ecut=    50.00 Ry     beta= 0.40
     Davidson diagonalization with overlap

---- Real-time Memory Report at c_bands before calling an iterative solver
          1076 MiB given to the printing process from OS
           860 MiB allocation reported by mallinfo(arena+hblkhd)
         46237 MiB available memory on the node where the printing process lives
     GPU memory used/free/total (MiB): 798 / 15482 / 16280
------------------
     ethr =  1.00E-02,  avg # of iterations =  2.6

     negative rho (up, down):  5.873E-04 1.078E-03

     total cpu time spent up to now is        8.4 secs

     total energy              =    -470.88412021 Ry
     estimated scf accuracy    <       1.71994598 Ry

     total magnetization       =     6.33 Bohr mag/cell
     absolute magnetization    =     6.46 Bohr mag/cell
[tb_dev] Currently allocated     1.13E+00 Mbytes, locked:    0 /   6
[tb_pin] Currently allocated     0.00E+00 Mbytes, locked:    0 /   0

     iteration #  2     ecut=    50.00 Ry     beta= 0.40
     Davidson diagonalization with overlap

---- Real-time Memory Report at c_bands before calling an iterative solver
          1192 MiB given to the printing process from OS
           888 MiB allocation reported by mallinfo(arena+hblkhd)
         46213 MiB available memory on the node where the printing process lives
     GPU memory used/free/total (MiB): 1028 / 15252 / 16280
------------------
     ethr =  4.10E-03,  avg # of iterations =  6.4

     negative rho (up, down):  5.744E-04 1.083E-03

     total cpu time spent up to now is       13.4 secs

     total energy              =    -470.11804132 Ry
     estimated scf accuracy    <      16.74538915 Ry

     total magnetization       =     1.58 Bohr mag/cell
     absolute magnetization    =     1.90 Bohr mag/cell
[tb_dev] Currently allocated     1.13E+00 Mbytes, locked:    0 /   6
[tb_pin] Currently allocated     0.00E+00 Mbytes, locked:    0 /   0

     iteration #  3     ecut=    50.00 Ry     beta= 0.40
     Davidson diagonalization with overlap

---- Real-time Memory Report at c_bands before calling an iterative solver
          1260 MiB given to the printing process from OS
           890 MiB allocation reported by mallinfo(arena+hblkhd)
         46209 MiB available memory on the node where the printing process lives
     GPU memory used/free/total (MiB): 1050 / 15230 / 16280
------------------
     ethr =  4.10E-03,  avg # of iterations =  4.9

     negative rho (up, down):  9.147E-05 2.433E-03

     total cpu time spent up to now is       17.7 secs

     total energy              =    -471.52539513 Ry
     estimated scf accuracy    <       0.22403333 Ry

     total magnetization       =     5.99 Bohr mag/cell
     absolute magnetization    =     6.15 Bohr mag/cell
[tb_dev] Currently allocated     1.13E+00 Mbytes, locked:    0 /   6
[tb_pin] Currently allocated     0.00E+00 Mbytes, locked:    0 /   0

     iteration #  4     ecut=    50.00 Ry     beta= 0.40
     Davidson diagonalization with overlap

---- Real-time Memory Report at c_bands before calling an iterative solver
          1326 MiB given to the printing process from OS
           892 MiB allocation reported by mallinfo(arena+hblkhd)
         46207 MiB available memory on the node where the printing process lives
     GPU memory used/free/total (MiB): 1050 / 15230 / 16280
------------------
     ethr =  5.33E-04,  avg # of iterations =  5.4

     negative rho (up, down):  5.686E-05 2.250E-03

     total cpu time spent up to now is       22.2 secs

     total energy              =    -471.55741386 Ry
     estimated scf accuracy    <       0.82162103 Ry

     total magnetization       =     5.58 Bohr mag/cell
     absolute magnetization    =     5.70 Bohr mag/cell
[tb_dev] Currently allocated     1.13E+00 Mbytes, locked:    0 /   6
[tb_pin] Currently allocated     0.00E+00 Mbytes, locked:    0 /   0

     iteration #  5     ecut=    50.00 Ry     beta= 0.40
     Davidson diagonalization with overlap

---- Real-time Memory Report at c_bands before calling an iterative solver
          1394 MiB given to the printing process from OS
           893 MiB allocation reported by mallinfo(arena+hblkhd)
         46202 MiB available memory on the node where the printing process lives
     GPU memory used/free/total (MiB): 1050 / 15230 / 16280
------------------
     ethr =  5.33E-04,  avg # of iterations =  2.2

     negative rho (up, down):  7.918E-06 2.761E-03

     total cpu time spent up to now is       25.0 secs

     total energy              =    -471.55898221 Ry
     estimated scf accuracy    <       0.18598575 Ry

     total magnetization       =     5.36 Bohr mag/cell
     absolute magnetization    =     5.51 Bohr mag/cell
[tb_dev] Currently allocated     1.13E+00 Mbytes, locked:    0 /   6
[tb_pin] Currently allocated     0.00E+00 Mbytes, locked:    0 /   0

     iteration #  6     ecut=    50.00 Ry     beta= 0.40
     Davidson diagonalization with overlap

---- Real-time Memory Report at c_bands before calling an iterative solver
          1459 MiB given to the printing process from OS
           895 MiB allocation reported by mallinfo(arena+hblkhd)
         46197 MiB available memory on the node where the printing process lives
     GPU memory used/free/total (MiB): 1050 / 15230 / 16280
------------------
     ethr =  4.43E-04,  avg # of iterations =  4.6

     negative rho (up, down):  3.011E-06 2.860E-03

     total cpu time spent up to now is       28.9 secs

     total energy              =    -471.61860108 Ry
     estimated scf accuracy    <       0.16033777 Ry

     total magnetization       =     4.04 Bohr mag/cell
     absolute magnetization    =     4.23 Bohr mag/cell
[tb_dev] Currently allocated     1.13E+00 Mbytes, locked:    0 /   6
[tb_pin] Currently allocated     0.00E+00 Mbytes, locked:    0 /   0

     iteration #  7     ecut=    50.00 Ry     beta= 0.40
     Davidson diagonalization with overlap

---- Real-time Memory Report at c_bands before calling an iterative solver
          1525 MiB given to the printing process from OS
           897 MiB allocation reported by mallinfo(arena+hblkhd)
         46194 MiB available memory on the node where the printing process lives
     GPU memory used/free/total (MiB): 1050 / 15230 / 16280
------------------
     ethr =  3.82E-04,  avg # of iterations =  1.3

     negative rho (up, down):  3.364E-05 2.418E-03

     total cpu time spent up to now is       31.3 secs

     total energy              =    -471.58826423 Ry
     estimated scf accuracy    <       0.21571970 Ry

     total magnetization       =     3.97 Bohr mag/cell
     absolute magnetization    =     4.17 Bohr mag/cell
[tb_dev] Currently allocated     1.13E+00 Mbytes, locked:    0 /   6
[tb_pin] Currently allocated     0.00E+00 Mbytes, locked:    0 /   0

     iteration #  8     ecut=    50.00 Ry     beta= 0.40
     Davidson diagonalization with overlap

---- Real-time Memory Report at c_bands before calling an iterative solver
          1587 MiB given to the printing process from OS
           914 MiB allocation reported by mallinfo(arena+hblkhd)
         46190 MiB available memory on the node where the printing process lives
     GPU memory used/free/total (MiB): 1050 / 15230 / 16280
------------------
     ethr =  3.82E-04,  avg # of iterations =  1.4

     negative rho (up, down):  6.384E-05 1.955E-03

     total cpu time spent up to now is       33.8 secs

     total energy              =    -471.59145870 Ry
     estimated scf accuracy    <       0.03594320 Ry

     total magnetization       =     4.23 Bohr mag/cell
     absolute magnetization    =     4.41 Bohr mag/cell
[tb_dev] Currently allocated     1.13E+00 Mbytes, locked:    0 /   6
[tb_pin] Currently allocated     0.00E+00 Mbytes, locked:    0 /   0

     iteration #  9     ecut=    50.00 Ry     beta= 0.40
     Davidson diagonalization with overlap

---- Real-time Memory Report at c_bands before calling an iterative solver
          1628 MiB given to the printing process from OS
           916 MiB allocation reported by mallinfo(arena+hblkhd)
         46187 MiB available memory on the node where the printing process lives
     GPU memory used/free/total (MiB): 1050 / 15230 / 16280
------------------
     ethr =  8.56E-05,  avg # of iterations =  5.5

     negative rho (up, down):  6.860E-05 1.884E-03

     total cpu time spent up to now is       38.3 secs

     total energy              =    -471.60348137 Ry
     estimated scf accuracy    <       0.02325267 Ry

     total magnetization       =     4.30 Bohr mag/cell
     absolute magnetization    =     4.46 Bohr mag/cell
[tb_dev] Currently allocated     1.13E+00 Mbytes, locked:    0 /   6
[tb_pin] Currently allocated     0.00E+00 Mbytes, locked:    0 /   0

     iteration # 10     ecut=    50.00 Ry     beta= 0.40
     Davidson diagonalization with overlap

---- Real-time Memory Report at c_bands before calling an iterative solver
          1653 MiB given to the printing process from OS
           918 MiB allocation reported by mallinfo(arena+hblkhd)
         46182 MiB available memory on the node where the printing process lives
     GPU memory used/free/total (MiB): 1050 / 15230 / 16280
------------------
     ethr =  5.54E-05,  avg # of iterations =  1.1

     negative rho (up, down):  1.233E-04 1.653E-03

     total cpu time spent up to now is       40.6 secs

     total energy              =    -471.60458960 Ry
     estimated scf accuracy    <       0.01419457 Ry

     total magnetization       =     4.15 Bohr mag/cell
     absolute magnetization    =     4.33 Bohr mag/cell
[tb_dev] Currently allocated     1.13E+00 Mbytes, locked:    0 /   6
[tb_pin] Currently allocated     0.00E+00 Mbytes, locked:    0 /   0

     iteration # 11     ecut=    50.00 Ry     beta= 0.40
     Davidson diagonalization with overlap

---- Real-time Memory Report at c_bands before calling an iterative solver
          1674 MiB given to the printing process from OS
           919 MiB allocation reported by mallinfo(arena+hblkhd)
         46181 MiB available memory on the node where the printing process lives
     GPU memory used/free/total (MiB): 1050 / 15230 / 16280
------------------
     ethr =  3.38E-05,  avg # of iterations =  1.8

     negative rho (up, down):  1.397E-04 1.623E-03

     total cpu time spent up to now is       43.3 secs

     total energy              =    -471.60600526 Ry
     estimated scf accuracy    <       0.01270830 Ry

     total magnetization       =     3.74 Bohr mag/cell
     absolute magnetization    =     3.92 Bohr mag/cell
[tb_dev] Currently allocated     1.13E+00 Mbytes, locked:    0 /   6
[tb_pin] Currently allocated     0.00E+00 Mbytes, locked:    0 /   0

     iteration # 12     ecut=    50.00 Ry     beta= 0.40
     Davidson diagonalization with overlap

---- Real-time Memory Report at c_bands before calling an iterative solver
          1696 MiB given to the printing process from OS
           921 MiB allocation reported by mallinfo(arena+hblkhd)
         46177 MiB available memory on the node where the printing process lives
     GPU memory used/free/total (MiB): 1050 / 15230 / 16280
------------------
     ethr =  3.03E-05,  avg # of iterations =  1.7

     negative rho (up, down):  1.487E-04 1.610E-03

     total cpu time spent up to now is       45.9 secs

     total energy              =    -471.60599657 Ry
     estimated scf accuracy    <       0.00801465 Ry

     total magnetization       =     3.67 Bohr mag/cell
     absolute magnetization    =     3.85 Bohr mag/cell
[tb_dev] Currently allocated     1.13E+00 Mbytes, locked:    0 /   6
[tb_pin] Currently allocated     0.00E+00 Mbytes, locked:    0 /   0

     iteration # 13     ecut=    50.00 Ry     beta= 0.40
     Davidson diagonalization with overlap

---- Real-time Memory Report at c_bands before calling an iterative solver
          1715 MiB given to the printing process from OS
           923 MiB allocation reported by mallinfo(arena+hblkhd)
         46179 MiB available memory on the node where the printing process lives
     GPU memory used/free/total (MiB): 1050 / 15230 / 16280
------------------
     ethr =  1.91E-05,  avg # of iterations =  1.5

     negative rho (up, down):  1.819E-04 1.561E-03

     total cpu time spent up to now is       48.4 secs

     total energy              =    -471.60591581 Ry
     estimated scf accuracy    <       0.00458568 Ry

     total magnetization       =     3.55 Bohr mag/cell
     absolute magnetization    =     3.73 Bohr mag/cell
[tb_dev] Currently allocated     1.13E+00 Mbytes, locked:    0 /   6
[tb_pin] Currently allocated     0.00E+00 Mbytes, locked:    0 /   0

     iteration # 14     ecut=    50.00 Ry     beta= 0.40
     Davidson diagonalization with overlap

---- Real-time Memory Report at c_bands before calling an iterative solver
          1737 MiB given to the printing process from OS
           925 MiB allocation reported by mallinfo(arena+hblkhd)
         46176 MiB available memory on the node where the printing process lives
     GPU memory used/free/total (MiB): 1050 / 15230 / 16280
------------------
     ethr =  1.09E-05,  avg # of iterations =  4.2

     negative rho (up, down):  1.344E-04 1.629E-03

     total cpu time spent up to now is       52.1 secs

     total energy              =    -471.60432878 Ry
     estimated scf accuracy    <       0.00343241 Ry

     total magnetization       =     3.23 Bohr mag/cell
     absolute magnetization    =     3.41 Bohr mag/cell
[tb_dev] Currently allocated     1.13E+00 Mbytes, locked:    0 /   6
[tb_pin] Currently allocated     0.00E+00 Mbytes, locked:    0 /   0

     iteration # 15     ecut=    50.00 Ry     beta= 0.40
     Davidson diagonalization with overlap

---- Real-time Memory Report at c_bands before calling an iterative solver
          1758 MiB given to the printing process from OS
           926 MiB allocation reported by mallinfo(arena+hblkhd)
         46178 MiB available memory on the node where the printing process lives
     GPU memory used/free/total (MiB): 1050 / 15230 / 16280
------------------
     ethr =  8.17E-06,  avg # of iterations =  2.1

     negative rho (up, down):  1.442E-04 1.617E-03

     total cpu time spent up to now is       54.9 secs

     total energy              =    -471.60612524 Ry
     estimated scf accuracy    <       0.00575507 Ry

     total magnetization       =     3.68 Bohr mag/cell
     absolute magnetization    =     3.83 Bohr mag/cell
[tb_dev] Currently allocated     1.13E+00 Mbytes, locked:    0 /   6
[tb_pin] Currently allocated     0.00E+00 Mbytes, locked:    0 /   0

     iteration # 16     ecut=    50.00 Ry     beta= 0.40
     Davidson diagonalization with overlap

---- Real-time Memory Report at c_bands before calling an iterative solver
          1777 MiB given to the printing process from OS
           928 MiB allocation reported by mallinfo(arena+hblkhd)
         46174 MiB available memory on the node where the printing process lives
     GPU memory used/free/total (MiB): 1050 / 15230 / 16280
------------------
     ethr =  8.17E-06,  avg # of iterations =  1.0

     negative rho (up, down):  1.875E-04 1.566E-03

     total cpu time spent up to now is       57.2 secs

     total energy              =    -471.60532683 Ry
     estimated scf accuracy    <       0.00488863 Ry

     total magnetization       =     3.60 Bohr mag/cell
     absolute magnetization    =     3.76 Bohr mag/cell
[tb_dev] Currently allocated     1.13E+00 Mbytes, locked:    0 /   6
[tb_pin] Currently allocated     0.00E+00 Mbytes, locked:    0 /   0

     iteration # 17     ecut=    50.00 Ry     beta= 0.40
     Davidson diagonalization with overlap

---- Real-time Memory Report at c_bands before calling an iterative solver
          1800 MiB given to the printing process from OS
           930 MiB allocation reported by mallinfo(arena+hblkhd)
         46170 MiB available memory on the node where the printing process lives
     GPU memory used/free/total (MiB): 1050 / 15230 / 16280
------------------
     ethr =  8.17E-06,  avg # of iterations =  1.7

     negative rho (up, down):  2.215E-04 1.529E-03

     total cpu time spent up to now is       59.8 secs

     total energy              =    -471.60646471 Ry
     estimated scf accuracy    <       0.00097139 Ry

     total magnetization       =     3.13 Bohr mag/cell
     absolute magnetization    =     3.32 Bohr mag/cell
[tb_dev] Currently allocated     1.13E+00 Mbytes, locked:    0 /   6
[tb_pin] Currently allocated     0.00E+00 Mbytes, locked:    0 /   0

     iteration # 18     ecut=    50.00 Ry     beta= 0.40
     Davidson diagonalization with overlap

---- Real-time Memory Report at c_bands before calling an iterative solver
          1819 MiB given to the printing process from OS
           932 MiB allocation reported by mallinfo(arena+hblkhd)
         46170 MiB available memory on the node where the printing process lives
     GPU memory used/free/total (MiB): 1050 / 15230 / 16280
------------------
     c_bands:  1 eigenvalues not converged
     c_bands:  1 eigenvalues not converged
     c_bands:  1 eigenvalues not converged
     c_bands:  1 eigenvalues not converged
     ethr =  2.31E-06,  avg # of iterations =  5.9

     negative rho (up, down):  2.224E-04 1.528E-03

     total cpu time spent up to now is       64.4 secs

     total energy              =    -471.60757778 Ry
     estimated scf accuracy    <       0.00027767 Ry

     total magnetization       =     2.75 Bohr mag/cell
     absolute magnetization    =     2.99 Bohr mag/cell
[tb_dev] Currently allocated     1.13E+00 Mbytes, locked:    0 /   6
[tb_pin] Currently allocated     0.00E+00 Mbytes, locked:    0 /   0

     iteration # 19     ecut=    50.00 Ry     beta= 0.40
     Davidson diagonalization with overlap

---- Real-time Memory Report at c_bands before calling an iterative solver
          1832 MiB given to the printing process from OS
           933 MiB allocation reported by mallinfo(arena+hblkhd)
         46167 MiB available memory on the node where the printing process lives
     GPU memory used/free/total (MiB): 1050 / 15230 / 16280
------------------
     ethr =  6.61E-07,  avg # of iterations =  2.7

     negative rho (up, down):  2.238E-04 1.524E-03

     total cpu time spent up to now is       67.4 secs

     total energy              =    -471.60760663 Ry
     estimated scf accuracy    <       0.00027840 Ry

     total magnetization       =     2.74 Bohr mag/cell
     absolute magnetization    =     2.98 Bohr mag/cell
[tb_dev] Currently allocated     1.13E+00 Mbytes, locked:    0 /   6
[tb_pin] Currently allocated     0.00E+00 Mbytes, locked:    0 /   0

     iteration # 20     ecut=    50.00 Ry     beta= 0.40
     Davidson diagonalization with overlap

---- Real-time Memory Report at c_bands before calling an iterative solver
          1834 MiB given to the printing process from OS
           935 MiB allocation reported by mallinfo(arena+hblkhd)
         46165 MiB available memory on the node where the printing process lives
     GPU memory used/free/total (MiB): 1050 / 15230 / 16280
------------------
     ethr =  6.61E-07,  avg # of iterations =  1.7

     negative rho (up, down):  2.297E-04 1.518E-03

     total cpu time spent up to now is       70.0 secs

     total energy              =    -471.60774184 Ry
     estimated scf accuracy    <       0.00027336 Ry

     total magnetization       =     2.69 Bohr mag/cell
     absolute magnetization    =     2.95 Bohr mag/cell
[tb_dev] Currently allocated     1.13E+00 Mbytes, locked:    0 /   6
[tb_pin] Currently allocated     0.00E+00 Mbytes, locked:    0 /   0

     iteration # 21     ecut=    50.00 Ry     beta= 0.40
     Davidson diagonalization with overlap

---- Real-time Memory Report at c_bands before calling an iterative solver
          1835 MiB given to the printing process from OS
           937 MiB allocation reported by mallinfo(arena+hblkhd)
         46166 MiB available memory on the node where the printing process lives
     GPU memory used/free/total (MiB): 1050 / 15230 / 16280
------------------
     ethr =  6.51E-07,  avg # of iterations =  2.1

     negative rho (up, down):  2.284E-04 1.519E-03

     total cpu time spent up to now is       72.7 secs

     total energy              =    -471.60774252 Ry
     estimated scf accuracy    <       0.00025635 Ry

     total magnetization       =     2.66 Bohr mag/cell
     absolute magnetization    =     2.92 Bohr mag/cell
[tb_dev] Currently allocated     1.13E+00 Mbytes, locked:    0 /   6
[tb_pin] Currently allocated     0.00E+00 Mbytes, locked:    0 /   0

     iteration # 22     ecut=    50.00 Ry     beta= 0.40
     Davidson diagonalization with overlap

---- Real-time Memory Report at c_bands before calling an iterative solver
          1838 MiB given to the printing process from OS
           938 MiB allocation reported by mallinfo(arena+hblkhd)
         46160 MiB available memory on the node where the printing process lives
     GPU memory used/free/total (MiB): 1050 / 15230 / 16280
------------------
     ethr =  6.10E-07,  avg # of iterations =  1.0

     negative rho (up, down):  2.200E-04 1.528E-03

     total cpu time spent up to now is       75.1 secs

     total energy              =    -471.60749129 Ry
     estimated scf accuracy    <       0.00026700 Ry

     total magnetization       =     2.66 Bohr mag/cell
     absolute magnetization    =     2.92 Bohr mag/cell
[tb_dev] Currently allocated     1.13E+00 Mbytes, locked:    0 /   6
[tb_pin] Currently allocated     0.00E+00 Mbytes, locked:    0 /   0

     iteration # 23     ecut=    50.00 Ry     beta= 0.40
     Davidson diagonalization with overlap

---- Real-time Memory Report at c_bands before calling an iterative solver
          1839 MiB given to the printing process from OS
           940 MiB allocation reported by mallinfo(arena+hblkhd)
         46160 MiB available memory on the node where the printing process lives
     GPU memory used/free/total (MiB): 1050 / 15230 / 16280
------------------
     ethr =  6.10E-07,  avg # of iterations =  1.5

     negative rho (up, down):  1.980E-04 1.546E-03

     total cpu time spent up to now is       77.6 secs

     total energy              =    -471.60667222 Ry
     estimated scf accuracy    <       0.00022125 Ry

     total magnetization       =     2.73 Bohr mag/cell
     absolute magnetization    =     2.97 Bohr mag/cell
[tb_dev] Currently allocated     1.13E+00 Mbytes, locked:    0 /   6
[tb_pin] Currently allocated     0.00E+00 Mbytes, locked:    0 /   0

     iteration # 24     ecut=    50.00 Ry     beta= 0.40
     Davidson diagonalization with overlap

---- Real-time Memory Report at c_bands before calling an iterative solver
          1840 MiB given to the printing process from OS
           942 MiB allocation reported by mallinfo(arena+hblkhd)
         46159 MiB available memory on the node where the printing process lives
     GPU memory used/free/total (MiB): 1050 / 15230 / 16280
------------------
     ethr =  5.27E-07,  avg # of iterations =  5.5

     negative rho (up, down):  1.734E-04 1.569E-03

     total cpu time spent up to now is       82.0 secs

     total energy              =    -471.60614734 Ry
     estimated scf accuracy    <       0.00029766 Ry

     total magnetization       =     2.91 Bohr mag/cell
     absolute magnetization    =     3.12 Bohr mag/cell
[tb_dev] Currently allocated     1.13E+00 Mbytes, locked:    0 /   6
[tb_pin] Currently allocated     0.00E+00 Mbytes, locked:    0 /   0

     iteration # 25     ecut=    50.00 Ry     beta= 0.40
     Davidson diagonalization with overlap

---- Real-time Memory Report at c_bands before calling an iterative solver
          1843 MiB given to the printing process from OS
           944 MiB allocation reported by mallinfo(arena+hblkhd)
         46159 MiB available memory on the node where the printing process lives
     GPU memory used/free/total (MiB): 1050 / 15230 / 16280
------------------
     c_bands:  1 eigenvalues not converged
     ethr =  5.27E-07,  avg # of iterations =  5.4

     negative rho (up, down):  1.869E-04 1.554E-03

     total cpu time spent up to now is       86.4 secs

     total energy              =    -471.60672619 Ry
     estimated scf accuracy    <       0.00037527 Ry

     total magnetization       =     3.12 Bohr mag/cell
     absolute magnetization    =     3.30 Bohr mag/cell
[tb_dev] Currently allocated     1.13E+00 Mbytes, locked:    0 /   6
[tb_pin] Currently allocated     0.00E+00 Mbytes, locked:    0 /   0

     iteration # 26     ecut=    50.00 Ry     beta= 0.40
     Davidson diagonalization with overlap

---- Real-time Memory Report at c_bands before calling an iterative solver
          1845 MiB given to the printing process from OS
           945 MiB allocation reported by mallinfo(arena+hblkhd)
         46155 MiB available memory on the node where the printing process lives
     GPU memory used/free/total (MiB): 1050 / 15230 / 16280
------------------
     ethr =  5.27E-07,  avg # of iterations =  2.8

     negative rho (up, down):  1.819E-04 1.565E-03

     total cpu time spent up to now is       89.5 secs

     total energy              =    -471.60668603 Ry
     estimated scf accuracy    <       0.00036612 Ry

     total magnetization       =     3.02 Bohr mag/cell
     absolute magnetization    =     3.21 Bohr mag/cell
[tb_dev] Currently allocated     1.13E+00 Mbytes, locked:    0 /   6
[tb_pin] Currently allocated     0.00E+00 Mbytes, locked:    0 /   0

     iteration # 27     ecut=    50.00 Ry     beta= 0.40
     Davidson diagonalization with overlap

---- Real-time Memory Report at c_bands before calling an iterative solver
          1845 MiB given to the printing process from OS
           947 MiB allocation reported by mallinfo(arena+hblkhd)
         46155 MiB available memory on the node where the printing process lives
     GPU memory used/free/total (MiB): 1050 / 15230 / 16280
------------------
     ethr =  5.27E-07,  avg # of iterations =  1.8

     negative rho (up, down):  1.797E-04 1.567E-03

     total cpu time spent up to now is       92.1 secs

     total energy              =    -471.60657922 Ry
     estimated scf accuracy    <       0.00021882 Ry

     total magnetization       =     3.08 Bohr mag/cell
     absolute magnetization    =     3.27 Bohr mag/cell
[tb_dev] Currently allocated     1.13E+00 Mbytes, locked:    0 /   6
[tb_pin] Currently allocated     0.00E+00 Mbytes, locked:    0 /   0

     iteration # 28     ecut=    50.00 Ry     beta= 0.40
     Davidson diagonalization with overlap

---- Real-time Memory Report at c_bands before calling an iterative solver
          1848 MiB given to the printing process from OS
           949 MiB allocation reported by mallinfo(arena+hblkhd)
         46154 MiB available memory on the node where the printing process lives
     GPU memory used/free/total (MiB): 1050 / 15230 / 16280
------------------
     ethr =  5.21E-07,  avg # of iterations =  4.4

     negative rho (up, down):  1.502E-04 1.590E-03

     total cpu time spent up to now is       95.8 secs

     total energy              =    -471.60551788 Ry
     estimated scf accuracy    <       0.00037697 Ry

     total magnetization       =     3.17 Bohr mag/cell
     absolute magnetization    =     3.35 Bohr mag/cell
[tb_dev] Currently allocated     1.13E+00 Mbytes, locked:    0 /   6
[tb_pin] Currently allocated     0.00E+00 Mbytes, locked:    0 /   0

     iteration # 29     ecut=    50.00 Ry     beta= 0.40
     Davidson diagonalization with overlap

---- Real-time Memory Report at c_bands before calling an iterative solver
          1850 MiB given to the printing process from OS
           951 MiB allocation reported by mallinfo(arena+hblkhd)
         46154 MiB available memory on the node where the printing process lives
     GPU memory used/free/total (MiB): 1050 / 15230 / 16280
------------------
     ethr =  5.21E-07,  avg # of iterations =  5.6

     negative rho (up, down):  1.448E-04 1.594E-03

     total cpu time spent up to now is      100.3 secs

     total energy              =    -471.60590161 Ry
     estimated scf accuracy    <       0.00037703 Ry

     total magnetization       =     3.36 Bohr mag/cell
     absolute magnetization    =     3.53 Bohr mag/cell
[tb_dev] Currently allocated     1.13E+00 Mbytes, locked:    0 /   6
[tb_pin] Currently allocated     0.00E+00 Mbytes, locked:    0 /   0

     iteration # 30     ecut=    50.00 Ry     beta= 0.40
     Davidson diagonalization with overlap

---- Real-time Memory Report at c_bands before calling an iterative solver
          1851 MiB given to the printing process from OS
           952 MiB allocation reported by mallinfo(arena+hblkhd)
         46151 MiB available memory on the node where the printing process lives
     GPU memory used/free/total (MiB): 1050 / 15230 / 16280
------------------
     ethr =  5.21E-07,  avg # of iterations =  1.7

     negative rho (up, down):  1.826E-04 1.563E-03

     total cpu time spent up to now is      102.8 secs

     total energy              =    -471.60587770 Ry
     estimated scf accuracy    <       0.00033714 Ry

     total magnetization       =     3.39 Bohr mag/cell
     absolute magnetization    =     3.55 Bohr mag/cell
[tb_dev] Currently allocated     1.13E+00 Mbytes, locked:    0 /   6
[tb_pin] Currently allocated     0.00E+00 Mbytes, locked:    0 /   0

     iteration # 31     ecut=    50.00 Ry     beta= 0.40
     Davidson diagonalization with overlap

---- Real-time Memory Report at c_bands before calling an iterative solver
          1855 MiB given to the printing process from OS
           954 MiB allocation reported by mallinfo(arena+hblkhd)
         46149 MiB available memory on the node where the printing process lives
     GPU memory used/free/total (MiB): 1050 / 15230 / 16280
------------------
     ethr =  5.21E-07,  avg # of iterations =  5.6

     negative rho (up, down):  2.551E-04 1.501E-03

     total cpu time spent up to now is      107.3 secs

     total energy              =    -471.60469212 Ry
     estimated scf accuracy    <       0.00014153 Ry

     total magnetization       =     3.12 Bohr mag/cell
     absolute magnetization    =     3.30 Bohr mag/cell
[tb_dev] Currently allocated     1.13E+00 Mbytes, locked:    0 /   6
[tb_pin] Currently allocated     0.00E+00 Mbytes, locked:    0 /   0

     iteration # 32     ecut=    50.00 Ry     beta= 0.40
     Davidson diagonalization with overlap

---- Real-time Memory Report at c_bands before calling an iterative solver
          1857 MiB given to the printing process from OS
           956 MiB allocation reported by mallinfo(arena+hblkhd)
         46145 MiB available memory on the node where the printing process lives
     GPU memory used/free/total (MiB): 1050 / 15230 / 16280
------------------
     c_bands:  1 eigenvalues not converged
     ethr =  3.37E-07,  avg # of iterations =  8.4

     negative rho (up, down):  1.415E-04 1.595E-03

     total cpu time spent up to now is      113.4 secs

     total energy              =    -471.59623716 Ry
     estimated scf accuracy    <       0.00056489 Ry

     total magnetization       =     2.48 Bohr mag/cell
     absolute magnetization    =     2.79 Bohr mag/cell
[tb_dev] Currently allocated     1.13E+00 Mbytes, locked:    0 /   6
[tb_pin] Currently allocated     0.00E+00 Mbytes, locked:    0 /   0

     iteration # 33     ecut=    50.00 Ry     beta= 0.40
     Davidson diagonalization with overlap

---- Real-time Memory Report at c_bands before calling an iterative solver
          1858 MiB given to the printing process from OS
           958 MiB allocation reported by mallinfo(arena+hblkhd)
         46142 MiB available memory on the node where the printing process lives
     GPU memory used/free/total (MiB): 1050 / 15230 / 16280
------------------
     c_bands:  1 eigenvalues not converged
     c_bands:  1 eigenvalues not converged
     ethr =  3.37E-07,  avg # of iterations =  9.7

     negative rho (up, down):  1.207E-04 1.613E-03

     total cpu time spent up to now is      120.1 secs

     total energy              =    -471.60508815 Ry
     estimated scf accuracy    <       0.00020858 Ry

     total magnetization       =     3.40 Bohr mag/cell
     absolute magnetization    =     3.56 Bohr mag/cell
[tb_dev] Currently allocated     1.13E+00 Mbytes, locked:    0 /   6
[tb_pin] Currently allocated     0.00E+00 Mbytes, locked:    0 /   0

     iteration # 34     ecut=    50.00 Ry     beta= 0.40
     Davidson diagonalization with overlap

---- Real-time Memory Report at c_bands before calling an iterative solver
          1860 MiB given to the printing process from OS
           959 MiB allocation reported by mallinfo(arena+hblkhd)
         46144 MiB available memory on the node where the printing process lives
     GPU memory used/free/total (MiB): 1050 / 15230 / 16280
------------------
     ethr =  3.37E-07,  avg # of iterations =  5.6

     negative rho (up, down):  1.402E-04 1.596E-03

     total cpu time spent up to now is      124.5 secs

     total energy              =    -471.60563604 Ry
     estimated scf accuracy    <       0.00031446 Ry

     total magnetization       =     3.53 Bohr mag/cell
     absolute magnetization    =     3.69 Bohr mag/cell
[tb_dev] Currently allocated     1.13E+00 Mbytes, locked:    0 /   6
[tb_pin] Currently allocated     0.00E+00 Mbytes, locked:    0 /   0

     iteration # 35     ecut=    50.00 Ry     beta= 0.40
     Davidson diagonalization with overlap

---- Real-time Memory Report at c_bands before calling an iterative solver
          1863 MiB given to the printing process from OS
           961 MiB allocation reported by mallinfo(arena+hblkhd)
         46141 MiB available memory on the node where the printing process lives
     GPU memory used/free/total (MiB): 1050 / 15230 / 16280
------------------
     ethr =  3.37E-07,  avg # of iterations =  4.5

     negative rho (up, down):  1.742E-04 1.568E-03

     total cpu time spent up to now is      128.4 secs

     total energy              =    -471.60587481 Ry
     estimated scf accuracy    <       0.00019144 Ry

     total magnetization       =     3.40 Bohr mag/cell
     absolute magnetization    =     3.57 Bohr mag/cell
[tb_dev] Currently allocated     1.13E+00 Mbytes, locked:    0 /   6
[tb_pin] Currently allocated     0.00E+00 Mbytes, locked:    0 /   0

     iteration # 36     ecut=    50.00 Ry     beta= 0.40
     Davidson diagonalization with overlap

---- Real-time Memory Report at c_bands before calling an iterative solver
          1863 MiB given to the printing process from OS
           963 MiB allocation reported by mallinfo(arena+hblkhd)
         46138 MiB available memory on the node where the printing process lives
     GPU memory used/free/total (MiB): 1050 / 15230 / 16280
------------------
     ethr =  3.37E-07,  avg # of iterations =  6.4

     negative rho (up, down):  2.262E-04 1.521E-03

     total cpu time spent up to now is      133.3 secs

     total energy              =    -471.60578832 Ry
     estimated scf accuracy    <       0.00016253 Ry

     total magnetization       =     3.16 Bohr mag/cell
     absolute magnetization    =     3.34 Bohr mag/cell
[tb_dev] Currently allocated     1.13E+00 Mbytes, locked:    0 /   6
[tb_pin] Currently allocated     0.00E+00 Mbytes, locked:    0 /   0

     iteration # 37     ecut=    50.00 Ry     beta= 0.40
     Davidson diagonalization with overlap

---- Real-time Memory Report at c_bands before calling an iterative solver
          1865 MiB given to the printing process from OS
           965 MiB allocation reported by mallinfo(arena+hblkhd)
         46137 MiB available memory on the node where the printing process lives
     GPU memory used/free/total (MiB): 1050 / 15230 / 16280
------------------
     c_bands:  1 eigenvalues not converged
     ethr =  3.37E-07,  avg # of iterations =  7.2

     negative rho (up, down):  2.148E-04 1.531E-03

     total cpu time spent up to now is      138.8 secs

     total energy              =    -471.60725227 Ry
     estimated scf accuracy    <       0.00027019 Ry

     total magnetization       =     2.72 Bohr mag/cell
     absolute magnetization    =     2.95 Bohr mag/cell
[tb_dev] Currently allocated     1.13E+00 Mbytes, locked:    0 /   6
[tb_pin] Currently allocated     0.00E+00 Mbytes, locked:    0 /   0

     iteration # 38     ecut=    50.00 Ry     beta= 0.40
     Davidson diagonalization with overlap

---- Real-time Memory Report at c_bands before calling an iterative solver
          1868 MiB given to the printing process from OS
           966 MiB allocation reported by mallinfo(arena+hblkhd)
         46137 MiB available memory on the node where the printing process lives
     GPU memory used/free/total (MiB): 1050 / 15230 / 16280
------------------
     ethr =  3.37E-07,  avg # of iterations =  2.5

     negative rho (up, down):  1.789E-04 1.563E-03

     total cpu time spent up to now is      141.7 secs

     total energy              =    -471.60572583 Ry
     estimated scf accuracy    <       0.00024849 Ry

     total magnetization       =     2.83 Bohr mag/cell
     absolute magnetization    =     3.04 Bohr mag/cell
[tb_dev] Currently allocated     1.13E+00 Mbytes, locked:    0 /   6
[tb_pin] Currently allocated     0.00E+00 Mbytes, locked:    0 /   0

     iteration # 39     ecut=    50.00 Ry     beta= 0.40
     Davidson diagonalization with overlap

---- Real-time Memory Report at c_bands before calling an iterative solver
          1869 MiB given to the printing process from OS
           968 MiB allocation reported by mallinfo(arena+hblkhd)
         46136 MiB available memory on the node where the printing process lives
     GPU memory used/free/total (MiB): 1050 / 15230 / 16280
------------------
     c_bands:  1 eigenvalues not converged
     ethr =  3.37E-07,  avg # of iterations =  6.8

     negative rho (up, down):  1.793E-04 1.566E-03

     total cpu time spent up to now is      146.8 secs

     total energy              =    -471.60663145 Ry
     estimated scf accuracy    <       0.00015003 Ry

     total magnetization       =     3.12 Bohr mag/cell
     absolute magnetization    =     3.29 Bohr mag/cell
[tb_dev] Currently allocated     1.13E+00 Mbytes, locked:    0 /   6
[tb_pin] Currently allocated     0.00E+00 Mbytes, locked:    0 /   0

     iteration # 40     ecut=    50.00 Ry     beta= 0.40
     Davidson diagonalization with overlap

---- Real-time Memory Report at c_bands before calling an iterative solver
          1871 MiB given to the printing process from OS
           970 MiB allocation reported by mallinfo(arena+hblkhd)
         46134 MiB available memory on the node where the printing process lives
     GPU memory used/free/total (MiB): 1050 / 15230 / 16280
------------------
     ethr =  3.37E-07,  avg # of iterations =  1.2

     negative rho (up, down):  3.423E-04 1.434E-03

     total cpu time spent up to now is      149.2 secs

     total energy              =    -471.59292414 Ry
     estimated scf accuracy    <       0.00016606 Ry

     total magnetization       =     3.12 Bohr mag/cell
     absolute magnetization    =     3.30 Bohr mag/cell
[tb_dev] Currently allocated     1.13E+00 Mbytes, locked:    0 /   6
[tb_pin] Currently allocated     0.00E+00 Mbytes, locked:    0 /   0

     iteration # 41     ecut=    50.00 Ry     beta= 0.40
     Davidson diagonalization with overlap

---- Real-time Memory Report at c_bands before calling an iterative solver
          1873 MiB given to the printing process from OS
           972 MiB allocation reported by mallinfo(arena+hblkhd)
         46130 MiB available memory on the node where the printing process lives
     GPU memory used/free/total (MiB): 1050 / 15230 / 16280
------------------
     c_bands:  1 eigenvalues not converged
     c_bands:  1 eigenvalues not converged
     c_bands:  1 eigenvalues not converged
     c_bands:  1 eigenvalues not converged
     c_bands:  1 eigenvalues not converged
     c_bands:  1 eigenvalues not converged
     c_bands:  1 eigenvalues not converged
     c_bands:  1 eigenvalues not converged
     ethr =  3.37E-07,  avg # of iterations = 11.7

     negative rho (up, down):  2.329E-04 1.520E-03

     total cpu time spent up to now is      156.9 secs

     total energy              =    -471.59560108 Ry
     estimated scf accuracy    <       0.00335452 Ry

     total magnetization       =     1.45 Bohr mag/cell
     absolute magnetization    =     2.83 Bohr mag/cell
[tb_dev] Currently allocated     1.13E+00 Mbytes, locked:    0 /   6
[tb_pin] Currently allocated     0.00E+00 Mbytes, locked:    0 /   0

     iteration # 42     ecut=    50.00 Ry     beta= 0.40
     Davidson diagonalization with overlap

---- Real-time Memory Report at c_bands before calling an iterative solver
          1876 MiB given to the printing process from OS
           973 MiB allocation reported by mallinfo(arena+hblkhd)
         46129 MiB available memory on the node where the printing process lives
     GPU memory used/free/total (MiB): 1050 / 15230 / 16280
------------------
     c_bands:  1 eigenvalues not converged
     c_bands:  1 eigenvalues not converged
     c_bands:  1 eigenvalues not converged
     c_bands:  1 eigenvalues not converged
     c_bands:  1 eigenvalues not converged
     c_bands:  1 eigenvalues not converged
     c_bands:  1 eigenvalues not converged
     c_bands:  1 eigenvalues not converged
     ethr =  3.37E-07,  avg # of iterations =  9.8

     negative rho (up, down):  1.848E-04 1.560E-03

     total cpu time spent up to now is      163.7 secs

     total energy              =    -471.60499696 Ry
     estimated scf accuracy    <       0.00030526 Ry

     total magnetization       =     2.66 Bohr mag/cell
     absolute magnetization    =     2.92 Bohr mag/cell
[tb_dev] Currently allocated     1.13E+00 Mbytes, locked:    0 /   6
[tb_pin] Currently allocated     0.00E+00 Mbytes, locked:    0 /   0

     iteration # 43     ecut=    50.00 Ry     beta= 0.40
     Davidson diagonalization with overlap

---- Real-time Memory Report at c_bands before calling an iterative solver
          1877 MiB given to the printing process from OS
           975 MiB allocation reported by mallinfo(arena+hblkhd)
         46127 MiB available memory on the node where the printing process lives
     GPU memory used/free/total (MiB): 1050 / 15230 / 16280
------------------
     c_bands:  1 eigenvalues not converged
     c_bands:  1 eigenvalues not converged
     ethr =  3.37E-07,  avg # of iterations =  7.4

     negative rho (up, down):  1.067E-04 1.623E-03

     total cpu time spent up to now is      169.2 secs

     total energy              =    -471.60130792 Ry
     estimated scf accuracy    <       0.00014147 Ry

     total magnetization       =     3.08 Bohr mag/cell
     absolute magnetization    =     3.26 Bohr mag/cell
[tb_dev] Currently allocated     1.13E+00 Mbytes, locked:    0 /   6
[tb_pin] Currently allocated     0.00E+00 Mbytes, locked:    0 /   0

     iteration # 44     ecut=    50.00 Ry     beta= 0.40
     Davidson diagonalization with overlap

---- Real-time Memory Report at c_bands before calling an iterative solver
          1880 MiB given to the printing process from OS
           977 MiB allocation reported by mallinfo(arena+hblkhd)
         46126 MiB available memory on the node where the printing process lives
     GPU memory used/free/total (MiB): 1050 / 15230 / 16280
------------------
     c_bands:  1 eigenvalues not converged
     c_bands:  1 eigenvalues not converged
     c_bands:  1 eigenvalues not converged
     c_bands:  1 eigenvalues not converged
     c_bands:  1 eigenvalues not converged
     c_bands:  1 eigenvalues not converged
     c_bands:  1 eigenvalues not converged
     ethr =  3.37E-07,  avg # of iterations =  9.4

     negative rho (up, down):  8.313E-05 1.642E-03

     total cpu time spent up to now is      175.7 secs

     total energy              =    -471.60380516 Ry
     estimated scf accuracy    <       0.00033718 Ry

     total magnetization       =     3.61 Bohr mag/cell
     absolute magnetization    =     3.76 Bohr mag/cell
[tb_dev] Currently allocated     1.13E+00 Mbytes, locked:    0 /   6
[tb_pin] Currently allocated     0.00E+00 Mbytes, locked:    0 /   0

     iteration # 45     ecut=    50.00 Ry     beta= 0.40
     Davidson diagonalization with overlap

---- Real-time Memory Report at c_bands before calling an iterative solver
          1881 MiB given to the printing process from OS
           978 MiB allocation reported by mallinfo(arena+hblkhd)
         46120 MiB available memory on the node where the printing process lives
     GPU memory used/free/total (MiB): 1050 / 15230 / 16280
------------------
     ethr =  3.37E-07,  avg # of iterations =  5.7

     negative rho (up, down):  9.127E-05 1.635E-03

     total cpu time spent up to now is      180.2 secs

     total energy              =    -471.60436538 Ry
     estimated scf accuracy    <       0.00051986 Ry

     total magnetization       =     3.74 Bohr mag/cell
     absolute magnetization    =     3.89 Bohr mag/cell
[tb_dev] Currently allocated     1.13E+00 Mbytes, locked:    0 /   6
[tb_pin] Currently allocated     0.00E+00 Mbytes, locked:    0 /   0

     iteration # 46     ecut=    50.00 Ry     beta= 0.40
     Davidson diagonalization with overlap

---- Real-time Memory Report at c_bands before calling an iterative solver
          1883 MiB given to the printing process from OS
           980 MiB allocation reported by mallinfo(arena+hblkhd)
         46121 MiB available memory on the node where the printing process lives
     GPU memory used/free/total (MiB): 1050 / 15230 / 16280
------------------
     ethr =  3.37E-07,  avg # of iterations =  1.8

     negative rho (up, down):  1.483E-04 1.588E-03

     total cpu time spent up to now is      182.8 secs

     total energy              =    -471.60436407 Ry
     estimated scf accuracy    <       0.00041880 Ry

     total magnetization       =     3.70 Bohr mag/cell
     absolute magnetization    =     3.85 Bohr mag/cell
[tb_dev] Currently allocated     1.13E+00 Mbytes, locked:    0 /   6
[tb_pin] Currently allocated     0.00E+00 Mbytes, locked:    0 /   0

     iteration # 47     ecut=    50.00 Ry     beta= 0.40
     Davidson diagonalization with overlap

---- Real-time Memory Report at c_bands before calling an iterative solver
          1885 MiB given to the printing process from OS
           982 MiB allocation reported by mallinfo(arena+hblkhd)
         46121 MiB available memory on the node where the printing process lives
     GPU memory used/free/total (MiB): 1050 / 15230 / 16280
------------------
     ethr =  3.37E-07,  avg # of iterations =  7.6

     negative rho (up, down):  1.978E-04 1.548E-03

     total cpu time spent up to now is      188.4 secs

     total energy              =    -471.60551336 Ry
     estimated scf accuracy    <       0.00016318 Ry

     total magnetization       =     3.35 Bohr mag/cell
     absolute magnetization    =     3.51 Bohr mag/cell
[tb_dev] Currently allocated     1.13E+00 Mbytes, locked:    0 /   6
[tb_pin] Currently allocated     0.00E+00 Mbytes, locked:    0 /   0

     iteration # 48     ecut=    50.00 Ry     beta= 0.40
     Davidson diagonalization with overlap

---- Real-time Memory Report at c_bands before calling an iterative solver
          1886 MiB given to the printing process from OS
           984 MiB allocation reported by mallinfo(arena+hblkhd)
         46117 MiB available memory on the node where the printing process lives
     GPU memory used/free/total (MiB): 1050 / 15230 / 16280
------------------
     c_bands:  1 eigenvalues not converged
     c_bands:  1 eigenvalues not converged
     ethr =  3.37E-07,  avg # of iterations =  7.3

     negative rho (up, down):  2.041E-04 1.543E-03

     total cpu time spent up to now is      193.9 secs

     total energy              =    -471.60709304 Ry
     estimated scf accuracy    <       0.00012072 Ry

     total magnetization       =     2.98 Bohr mag/cell
     absolute magnetization    =     3.17 Bohr mag/cell
[tb_dev] Currently allocated     1.13E+00 Mbytes, locked:    0 /   6
[tb_pin] Currently allocated     0.00E+00 Mbytes, locked:    0 /   0

     iteration # 49     ecut=    50.00 Ry     beta= 0.40
     Davidson diagonalization with overlap

---- Real-time Memory Report at c_bands before calling an iterative solver
          1888 MiB given to the printing process from OS
           985 MiB allocation reported by mallinfo(arena+hblkhd)
         46117 MiB available memory on the node where the printing process lives
     GPU memory used/free/total (MiB): 1050 / 15230 / 16280
------------------
     ethr =  2.87E-07,  avg # of iterations =  2.4

     negative rho (up, down):  1.618E-04 1.576E-03

     total cpu time spent up to now is      196.7 secs

     total energy              =    -471.60515548 Ry
     estimated scf accuracy    <       0.00012336 Ry

     total magnetization       =     2.93 Bohr mag/cell
     absolute magnetization    =     3.13 Bohr mag/cell
[tb_dev] Currently allocated     1.13E+00 Mbytes, locked:    0 /   6
[tb_pin] Currently allocated     0.00E+00 Mbytes, locked:    0 /   0

     iteration # 50     ecut=    50.00 Ry     beta= 0.40
     Davidson diagonalization with overlap

---- Real-time Memory Report at c_bands before calling an iterative solver
          1891 MiB given to the printing process from OS
           987 MiB allocation reported by mallinfo(arena+hblkhd)
         46107 MiB available memory on the node where the printing process lives
     GPU memory used/free/total (MiB): 1050 / 15230 / 16280
------------------
     ethr =  2.87E-07,  avg # of iterations =  6.1

[...]
     Davidson diagonalization with overlap

---- Real-time Memory Report at c_bands before calling an iterative solver
          1921 MiB given to the printing process from OS
          1016 MiB allocation reported by mallinfo(arena+hblkhd)
         46081 MiB available memory on the node where the printing process lives
     GPU memory used/free/total (MiB): 1050 / 15230 / 16280
------------------
     c_bands:  1 eigenvalues not converged
     ethr =  2.87E-07,  avg # of iterations =  5.2

     negative rho (up, down):  1.747E-04 1.568E-03

     total cpu time spent up to now is      279.5 secs

     total energy              =    -471.59531634 Ry
     estimated scf accuracy    <       0.00111019 Ry

     total magnetization       =     2.07 Bohr mag/cell
     absolute magnetization    =     2.57 Bohr mag/cell
[tb_dev] Currently allocated     1.13E+00 Mbytes, locked:    0 /   6
[tb_pin] Currently allocated     0.00E+00 Mbytes, locked:    0 /   0

     iteration # 67     ecut=    50.00 Ry     beta= 0.40
     Davidson diagonalization with overlap

---- Real-time Memory Report at c_bands before calling an iterative solver
          1922 MiB given to the printing process from OS
          1018 MiB allocation reported by mallinfo(arena+hblkhd)
         46079 MiB available memory on the node where the printing process lives
     GPU memory used/free/total (MiB): 1050 / 15230 / 16280
------------------
     c_bands:  1 eigenvalues not converged
     c_bands:  1 eigenvalues not converged
     ethr =  2.87E-07,  avg # of iterations = 10.0

     negative rho (up, down):  1.389E-04 1.598E-03

     total cpu time spent up to now is      286.4 secs

     total energy              =    -471.60501793 Ry
     estimated scf accuracy    <       0.00013440 Ry

     total magnetization       =     3.16 Bohr mag/cell
     absolute magnetization    =     3.33 Bohr mag/cell
[tb_dev] Currently allocated     1.13E+00 Mbytes, locked:    0 /   6
[tb_pin] Currently allocated     0.00E+00 Mbytes, locked:    0 /   0

     iteration # 68     ecut=    50.00 Ry     beta= 0.40
     Davidson diagonalization with overlap

---- Real-time Memory Report at c_bands before calling an iterative solver
          1925 MiB given to the printing process from OS
          1019 MiB allocation reported by mallinfo(arena+hblkhd)
         46075 MiB available memory on the node where the printing process lives
     GPU memory used/free/total (MiB): 1050 / 15230 / 16280
------------------
     c_bands:  1 eigenvalues not converged
     ethr =  2.87E-07,  avg # of iterations =  6.7

     negative rho (up, down):  1.041E-04 1.627E-03

     total cpu time spent up to now is      291.5 secs

     total energy              =    -471.60419178 Ry
     estimated scf accuracy    <       0.00019531 Ry

     total magnetization       =     3.41 Bohr mag/cell
     absolute magnetization    =     3.57 Bohr mag/cell
[tb_dev] Currently allocated     1.13E+00 Mbytes, locked:    0 /   6
[tb_pin] Currently allocated     0.00E+00 Mbytes, locked:    0 /   0

     iteration # 69     ecut=    50.00 Ry     beta= 0.40
     Davidson diagonalization with overlap

---- Real-time Memory Report at c_bands before calling an iterative solver
          1928 MiB given to the printing process from OS
          1021 MiB allocation reported by mallinfo(arena+hblkhd)
         46075 MiB available memory on the node where the printing process lives
     GPU memory used/free/total (MiB): 1050 / 15230 / 16280
------------------
     c_bands:  1 eigenvalues not converged
     ethr =  2.87E-07,  avg # of iterations =  7.2

     negative rho (up, down):  1.794E-04 1.564E-03

     total cpu time spent up to now is      296.8 secs

     total energy              =    -471.60366300 Ry
     estimated scf accuracy    <       0.00036903 Ry

     total magnetization       =     3.63 Bohr mag/cell
     absolute magnetization    =     3.78 Bohr mag/cell
[tb_dev] Currently allocated     1.13E+00 Mbytes, locked:    0 /   6
[tb_pin] Currently allocated     0.00E+00 Mbytes, locked:    0 /   0

     iteration # 70     ecut=    50.00 Ry     beta= 0.40
     Davidson diagonalization with overlap

---- Real-time Memory Report at c_bands before calling an iterative solver
          1928 MiB given to the printing process from OS
          1023 MiB allocation reported by mallinfo(arena+hblkhd)
         46076 MiB available memory on the node where the printing process lives
     GPU memory used/free/total (MiB): 1050 / 15230 / 16280
------------------
     ethr =  2.87E-07,  avg # of iterations =  8.1

     negative rho (up, down):  1.617E-04 1.578E-03

     total cpu time spent up to now is      302.8 secs

     total energy              =    -471.60610914 Ry
     estimated scf accuracy    <       0.00012259 Ry

     total magnetization       =     3.12 Bohr mag/cell
     absolute magnetization    =     3.30 Bohr mag/cell
[tb_dev] Currently allocated     1.13E+00 Mbytes, locked:    0 /   6
[tb_pin] Currently allocated     0.00E+00 Mbytes, locked:    0 /   0

     iteration # 71     ecut=    50.00 Ry     beta= 0.40
     Davidson diagonalization with overlap

---- Real-time Memory Report at c_bands before calling an iterative solver
          1931 MiB given to the printing process from OS
          1025 MiB allocation reported by mallinfo(arena+hblkhd)
         46072 MiB available memory on the node where the printing process lives
     GPU memory used/free/total (MiB): 1050 / 15230 / 16280
------------------
     ethr =  2.87E-07,  avg # of iterations =  4.1

     negative rho (up, down):  1.663E-04 1.575E-03

     total cpu time spent up to now is      306.5 secs

     total energy              =    -471.60637688 Ry
     estimated scf accuracy    <       0.00014711 Ry

     total magnetization       =     3.25 Bohr mag/cell
     absolute magnetization    =     3.42 Bohr mag/cell
[tb_dev] Currently allocated     1.13E+00 Mbytes, locked:    0 /   6
[tb_pin] Currently allocated     0.00E+00 Mbytes, locked:    0 /   0

     iteration # 72     ecut=    50.00 Ry     beta= 0.40
     Davidson diagonalization with overlap

---- Real-time Memory Report at c_bands before calling an iterative solver
          1934 MiB given to the printing process from OS
          1027 MiB allocation reported by mallinfo(arena+hblkhd)
         46061 MiB available memory on the node where the printing process lives
     GPU memory used/free/total (MiB): 1050 / 15230 / 16280
------------------
     ethr =  2.87E-07,  avg # of iterations =  1.1

     negative rho (up, down):  1.715E-04 1.570E-03

     total cpu time spent up to now is      308.9 secs

     total energy              =    -471.60647329 Ry
     estimated scf accuracy    <       0.00013490 Ry

     total magnetization       =     3.22 Bohr mag/cell
     absolute magnetization    =     3.39 Bohr mag/cell
[tb_dev] Currently allocated     1.13E+00 Mbytes, locked:    0 /   6
[tb_pin] Currently allocated     0.00E+00 Mbytes, locked:    0 /   0

     iteration # 73     ecut=    50.00 Ry     beta= 0.40
     Davidson diagonalization with overlap

---- Real-time Memory Report at c_bands before calling an iterative solver
          1934 MiB given to the printing process from OS
          1029 MiB allocation reported by mallinfo(arena+hblkhd)
         46061 MiB available memory on the node where the printing process lives
     GPU memory used/free/total (MiB): 1050 / 15230 / 16280
------------------
     ethr =  2.87E-07,  avg # of iterations =  1.9

     negative rho (up, down):  1.924E-04 1.553E-03

     total cpu time spent up to now is      311.6 secs

     total energy              =    -471.60660777 Ry
     estimated scf accuracy    <       0.00012506 Ry

     total magnetization       =     3.18 Bohr mag/cell
     absolute magnetization    =     3.36 Bohr mag/cell
[tb_dev] Currently allocated     1.13E+00 Mbytes, locked:    0 /   6
[tb_pin] Currently allocated     0.00E+00 Mbytes, locked:    0 /   0

     iteration # 74     ecut=    50.00 Ry     beta= 0.40
     Davidson diagonalization with overlap

---- Real-time Memory Report at c_bands before calling an iterative solver
          1937 MiB given to the printing process from OS
          1031 MiB allocation reported by mallinfo(arena+hblkhd)
         46062 MiB available memory on the node where the printing process lives
     GPU memory used/free/total (MiB): 1050 / 15230 / 16280
------------------
     ethr =  2.87E-07,  avg # of iterations =  5.6

     negative rho (up, down):  2.147E-04 1.534E-03

     total cpu time spent up to now is      316.0 secs

     total energy              =    -471.60700254 Ry
     estimated scf accuracy    <       0.00012436 Ry

     total magnetization       =     3.02 Bohr mag/cell
     absolute magnetization    =     3.21 Bohr mag/cell
[tb_dev] Currently allocated     1.13E+00 Mbytes, locked:    0 /   6
[tb_pin] Currently allocated     0.00E+00 Mbytes, locked:    0 /   0

     iteration # 75     ecut=    50.00 Ry     beta= 0.40
     Davidson diagonalization with overlap

---- Real-time Memory Report at c_bands before calling an iterative solver
          1940 MiB given to the printing process from OS
          1033 MiB allocation reported by mallinfo(arena+hblkhd)
         46061 MiB available memory on the node where the printing process lives
     GPU memory used/free/total (MiB): 1050 / 15230 / 16280
------------------
     c_bands:  1 eigenvalues not converged
     ethr =  2.87E-07,  avg # of iterations =  5.9

     negative rho (up, down):  2.570E-04 1.500E-03

     total cpu time spent up to now is      320.7 secs

     total energy              =    -471.60713129 Ry
     estimated scf accuracy    <       0.00017302 Ry

     total magnetization       =     2.84 Bohr mag/cell
     absolute magnetization    =     3.05 Bohr mag/cell
[tb_dev] Currently allocated     1.13E+00 Mbytes, locked:    0 /   6
[tb_pin] Currently allocated     0.00E+00 Mbytes, locked:    0 /   0

     iteration # 76     ecut=    50.00 Ry     beta= 0.40
     Davidson diagonalization with overlap

---- Real-time Memory Report at c_bands before calling an iterative solver
          1941 MiB given to the printing process from OS
          1035 MiB allocation reported by mallinfo(arena+hblkhd)
         46058 MiB available memory on the node where the printing process lives
     GPU memory used/free/total (MiB): 1050 / 15230 / 16280
------------------
     c_bands:  1 eigenvalues not converged
     ethr =  2.87E-07,  avg # of iterations =  7.1

     negative rho (up, down):  2.313E-04 1.521E-03

     total cpu time spent up to now is      326.0 secs

     total energy              =    -471.60718767 Ry
     estimated scf accuracy    <       0.00048543 Ry

     total magnetization       =     2.43 Bohr mag/cell
     absolute magnetization    =     2.76 Bohr mag/cell
[tb_dev] Currently allocated     1.13E+00 Mbytes, locked:    0 /   6
[tb_pin] Currently allocated     0.00E+00 Mbytes, locked:    0 /   0

     iteration # 77     ecut=    50.00 Ry     beta= 0.40
     Davidson diagonalization with overlap

---- Real-time Memory Report at c_bands before calling an iterative solver
          1944 MiB given to the printing process from OS
          1037 MiB allocation reported by mallinfo(arena+hblkhd)
         46058 MiB available memory on the node where the printing process lives
     GPU memory used/free/total (MiB): 1050 / 15230 / 16280
------------------
     ethr =  2.87E-07,  avg # of iterations =  5.4

     negative rho (up, down):  2.008E-04 1.546E-03

     total cpu time spent up to now is      330.4 secs

     total energy              =    -471.60634381 Ry
     estimated scf accuracy    <       0.00027200 Ry

     total magnetization       =     2.69 Bohr mag/cell
     absolute magnetization    =     2.93 Bohr mag/cell
[tb_dev] Currently allocated     1.13E+00 Mbytes, locked:    0 /   6
[tb_pin] Currently allocated     0.00E+00 Mbytes, locked:    0 /   0

     iteration # 78     ecut=    50.00 Ry     beta= 0.40
     Davidson diagonalization with overlap

---- Real-time Memory Report at c_bands before calling an iterative solver
          1946 MiB given to the printing process from OS
          1039 MiB allocation reported by mallinfo(arena+hblkhd)
         46055 MiB available memory on the node where the printing process lives
     GPU memory used/free/total (MiB): 1050 / 15230 / 16280
------------------
     c_bands:  1 eigenvalues not converged
     ethr =  2.87E-07,  avg # of iterations =  6.5

     negative rho (up, down):  1.594E-04 1.580E-03

     total cpu time spent up to now is      335.3 secs

     total energy              =    -471.60511978 Ry
     estimated scf accuracy    <       0.00016051 Ry

     total magnetization       =     2.96 Bohr mag/cell
     absolute magnetization    =     3.15 Bohr mag/cell
[tb_dev] Currently allocated     1.13E+00 Mbytes, locked:    0 /   6
[tb_pin] Currently allocated     0.00E+00 Mbytes, locked:    0 /   0

     iteration # 79     ecut=    50.00 Ry     beta= 0.40
     Davidson diagonalization with overlap

---- Real-time Memory Report at c_bands before calling an iterative solver
          1946 MiB given to the printing process from OS
          1040 MiB allocation reported by mallinfo(arena+hblkhd)
         46052 MiB available memory on the node where the printing process lives
     GPU memory used/free/total (MiB): 1050 / 15230 / 16280
------------------
     ethr =  2.87E-07,  avg # of iterations =  6.9

     negative rho (up, down):  1.475E-04 1.590E-03

     total cpu time spent up to now is      340.6 secs

     total energy              =    -471.60591150 Ry
     estimated scf accuracy    <       0.00015387 Ry

     total magnetization       =     3.27 Bohr mag/cell
     absolute magnetization    =     3.44 Bohr mag/cell
[tb_dev] Currently allocated     1.13E+00 Mbytes, locked:    0 /   6
[tb_pin] Currently allocated     0.00E+00 Mbytes, locked:    0 /   0

     iteration # 80     ecut=    50.00 Ry     beta= 0.40
     Davidson diagonalization with overlap

---- Real-time Memory Report at c_bands before calling an iterative solver
          1949 MiB given to the printing process from OS
          1042 MiB allocation reported by mallinfo(arena+hblkhd)
         46054 MiB available memory on the node where the printing process lives
     GPU memory used/free/total (MiB): 1050 / 15230 / 16280
------------------
     ethr =  2.87E-07,  avg # of iterations =  4.2

     negative rho (up, down):  1.851E-04 1.559E-03

     total cpu time spent up to now is      344.3 secs

     total energy              =    -471.60593244 Ry
     estimated scf accuracy    <       0.00019041 Ry

     total magnetization       =     3.36 Bohr mag/cell
     absolute magnetization    =     3.52 Bohr mag/cell

     End of self-consistent calculation

     convergence NOT achieved after  80 iterations: stopping

     Writing config to output data dir ./out/aiida.save/
 
     init_run     :     19.17s CPU      4.31s WALL (       1 calls)
     electrons    :    734.32s CPU    338.96s WALL (       1 calls)

     Called by init_run:
     wfcinit      :      1.30s CPU      2.10s WALL (       1 calls)
                                        2.10s GPU  (       1 calls)
     wfcinit:atom :      0.04s CPU      0.05s WALL (     144 calls)
                                        0.05s GPU  (     144 calls)
     wfcinit:wfcr :      0.86s CPU      1.51s WALL (     144 calls)
                                        1.51s GPU  (     144 calls)
     potinit      :      7.46s CPU      0.71s WALL (       1 calls)
     hinit0       :      6.86s CPU      0.94s WALL (       1 calls)

     Called by electrons:
     c_bands      :    378.11s CPU    274.71s WALL (      80 calls)
     sum_band     :     27.92s CPU     34.34s WALL (      80 calls)
     v_of_rho     :      7.96s CPU      0.71s WALL (      81 calls)
     v_h          :      1.20s CPU      0.11s WALL (      81 calls)
     v_xc         :      6.75s CPU      0.60s WALL (      81 calls)
     newd         :     20.46s CPU      2.14s WALL (      81 calls)
                                        2.14s GPU  (      81 calls)
     PAW_pot      :    293.63s CPU     26.65s WALL (      81 calls)
     mix_rho      :     11.55s CPU      1.13s WALL (      80 calls)

     Called by c_bands:
     init_us_2    :     33.20s CPU     30.02s WALL (   23184 calls)
     init_us_2:gp :     32.71s CPU     29.64s WALL (   23184 calls)
     cegterg      :    332.48s CPU    244.61s WALL (   11520 calls)

     Called by sum_band:
     sum_band:wei :      0.29s CPU      0.31s WALL (      80 calls)
                                        0.31s GPU  (      80 calls)
     sum_band:loo :     25.11s CPU     31.30s WALL (      80 calls)
                                       31.30s GPU  (      80 calls)
     sum_band:buf :      3.24s CPU      3.98s WALL (   11520 calls)
                                        3.91s GPU  (   11520 calls)
     sum_band:ini :     11.30s CPU     14.92s WALL (   11520 calls)
                                       14.86s GPU  (   11520 calls)
     sum_band:cal :      0.34s CPU      0.91s WALL (   11520 calls)
                                        0.80s GPU  (   11520 calls)
     sum_band:bec :      1.61s CPU      2.05s WALL (   11520 calls)
                                        1.97s GPU  (   11520 calls)
     addusdens    :      2.01s CPU      2.21s WALL (      80 calls)
                                        2.21s GPU  (      80 calls)
     addusd:skk   :      0.01s CPU      0.01s WALL (     240 calls)
                                        0.01s GPU  (     240 calls)

     Called by *egterg:
     cdiaghg      :    154.74s CPU    119.30s WALL (   69108 calls)
                                      118.85s GPU  (   69108 calls)
     cegterg:over :      9.11s CPU      6.97s WALL (   57588 calls)
     cegterg:upda :     17.11s CPU     12.66s WALL (   57588 calls)
     cegterg:last :      3.62s CPU      2.78s WALL (   29766 calls)
     h_psi        :    112.03s CPU     79.35s WALL (   69252 calls)
                                       78.97s GPU  (   69252 calls)
     s_psi        :      7.39s CPU      7.95s WALL (   69252 calls)
                                        7.44s GPU  (   69252 calls)
     g_psi        :      0.55s CPU      1.17s WALL (   57588 calls)
                                        0.81s GPU  (   57588 calls)

     Called by h_psi:
     h_psi:calbec :      3.00s CPU      5.83s WALL (   69252 calls)
                                        5.42s GPU  (   69252 calls)
     vloc_psi     :     85.02s CPU     59.90s WALL (   69252 calls)
                                       59.49s GPU  (   69252 calls)
     add_vuspsi   :     10.33s CPU      9.42s WALL (   69252 calls)
                                        9.02s GPU  (   69252 calls)

     General routines
     calbec       :      2.50s CPU      1.94s WALL (   80772 calls)
     fft          :      2.37s CPU      0.28s WALL (    2023 calls)
                                        0.23s GPU  (    1861 calls)
     ffts         :      0.05s CPU      0.02s WALL (     322 calls)
                                        0.01s GPU  (     160 calls)
     fftw         :      5.58s CPU     35.97s WALL (  213276 calls)
                                       34.80s GPU  (  213276 calls)
     interpolate  :      1.44s CPU      0.13s WALL (     162 calls)
     davcio       :      1.13s CPU      0.12s WALL (     162 calls)
 
     Parallel routines

     PAW routines
     PAW_pot      :    293.63s CPU     26.65s WALL (      81 calls)
     PAW_symme    :      0.38s CPU      0.06s WALL (     161 calls)
 
     PWSCF        :  12m37.85s CPU   5m44.50s WALL

 
   This run was terminated on:  18: 1:53  23Oct2023            

=------------------------------------------------------------------------------=
   JOB DONE.
=------------------------------------------------------------------------------=
