
     Program PWSCF v.7.2 starts on 30Nov2023 at  4:25:40 
        Git branch: develop
        Last git commit: 9055681be6fc8200e6fffe76ed5fda34c2696339
        Last git commit date: Wed Nov 8 16:29:39 2023 +0000
        Last git commit subject: Merge branch 'calbec_fix' into 'develop'

     This program is part of the open-source Quantum ESPRESSO suite
     for quantum simulation of materials; please cite
         "P. Giannozzi et al., J. Phys.:Condens. Matter 21 395502 (2009);
         "P. Giannozzi et al., J. Phys.:Condens. Matter 29 465901 (2017);
         "P. Giannozzi et al., J. Chem. Phys. 152 154105 (2020);
          URL http://www.quantum-espresso.org", 
     in publications or presentations arising from this work. More details at
     http://www.quantum-espresso.org/quote

     Parallel version (MPI), running on    56 processors

     MPI processes distributed on     1 nodes
     485621 MiB available memory on the printing compute node when the environment starts

     Reading input from aiida.in

     Current dimensions of program PWSCF are:
     Max number of different atomic species (ntypx) = 10
     Max number of k-points (npk) =  40000
     Max angular momentum in pseudopotentials (lmaxx) =  4
     file K.pbesol-spn-kjpaw_psl.1.0.0.UPF: wavefunction(s)  3S renormalized
     Message from routine setup:
     using ibrav=0 with symmetry is DISCOURAGED, use correct ibrav instead

     K-points division:     npool     =       7
     R & G space division:  proc/nbgrp/npool/nimage =       8
     Subspace diagonalization in iterative solution of the eigenvalue problem:
     a serial algorithm will be used


     Parallelization info
     --------------------
     sticks:   dense  smooth     PW     G-vecs:    dense   smooth      PW
     Min         474     236     68                19176     6773    1045
     Max         475     237     69                19178     6776    1046
     Sum        3793    1891    547               153421    54193    8363

     Using Slab Decomposition



     bravais-lattice index     =            0
     lattice parameter (alat)  =      10.6832  a.u.
     unit-cell volume          =     862.1682 (a.u.)^3
     number of atoms/cell      =           10
     number of atomic types    =            4
     number of electrons       =        80.00
     number of Kohn-Sham states=           52
     kinetic-energy cutoff     =      60.0000  Ry
     charge density cutoff     =     480.0000  Ry
     scf convergence threshold =      2.0E-09
     mixing beta               =       0.4000
     number of iterations used =            8  plain     mixing
     Exchange-correlation= SLA  PW   PSX  PSC
                           (   1   4  10   8   0   0   0)

     celldm(1)=  10.683224  celldm(2)=   0.000000  celldm(3)=   0.000000
     celldm(4)=   0.000000  celldm(5)=   0.000000  celldm(6)=   0.000000

     crystal axes: (cart. coord. in units of alat)
               a(1) = (   0.000000   0.707107   0.707107 )  
               a(2) = (   0.707107   0.000000   0.707107 )  
               a(3) = (   0.707107   0.707107   0.000000 )  

     reciprocal axes: (cart. coord. in units 2 pi/alat)
               b(1) = ( -0.707107  0.707107  0.707107 )  
               b(2) = (  0.707107 -0.707107  0.707107 )  
               b(3) = (  0.707107  0.707107 -0.707107 )  


     PseudoPot. # 1 for Co read from file:
     ./pseudo/co_pbesol_v1.2.uspp.F.UPF
     MD5 check sum: 3b4cd4e7cc7df4da9fdede0fd33e2193
     Pseudo is Ultrasoft + core correction, Zval = 17.0
     Generated by new atomic code, or converted to UPF format
     Using radial grid of  863 points,  6 beta functions with: 
                l(1) =   0
                l(2) =   0
                l(3) =   1
                l(4) =   1
                l(5) =   2
                l(6) =   2
     Q(r) pseudized with  8 coefficients,  rinner =    1.200   1.200   1.200
                                                       1.200   1.200

     PseudoPot. # 2 for F  read from file:
     ./pseudo/f_pbesol_v1.4.uspp.F.UPF
     MD5 check sum: d2815ecb49b17b99c5724ffd2f9bbd8d
     Pseudo is Ultrasoft, Zval =  7.0
     Generated by new atomic code, or converted to UPF format
     Using radial grid of  799 points,  4 beta functions with: 
                l(1) =   0
                l(2) =   0
                l(3) =   1
                l(4) =   1
     Q(r) pseudized with  8 coefficients,  rinner =    0.950   0.950   0.950


     PseudoPot. # 3 for K  read from file:
     ./pseudo/K.pbesol-spn-kjpaw_psl.1.0.0.UPF
     MD5 check sum: b302bede38c4f5fe00638ceae66f121b
     Pseudo is Projector augmented-wave + core cor, Zval =  9.0
     Generated using "atomic" code by A. Dal Corso  v.6.0 svn rev. 13079
     Shape of augmentation charge: PSQ
     Using radial grid of 1165 points,  6 beta functions with: 
                l(1) =   0
                l(2) =   0
                l(3) =   1
                l(4) =   1
                l(5) =   2
                l(6) =   2
     Q(r) pseudized with 0 coefficients 


     PseudoPot. # 4 for Li read from file:
     ./pseudo/li_pbesol_v1.4.uspp.F.UPF
     MD5 check sum: aa28d9aeea6a965f2dc95ee9517b3536
     Pseudo is Ultrasoft, Zval =  3.0
     Generated by new atomic code, or converted to UPF format
     Using radial grid of  751 points,  5 beta functions with: 
                l(1) =   0
                l(2) =   0
                l(3) =   0
                l(4) =   1
                l(5) =   1
     Q(r) pseudized with 10 coefficients,  rinner =    1.150   1.150   1.150


     atomic species   valence    mass     pseudopotential
     Co               17.00    58.93319     Co( 1.00)
     F                 7.00    18.99840     F ( 1.00)
     K                 9.00    39.09830     K ( 1.00)
     Li                3.00     6.94100     Li( 1.00)

     Starting magnetic structure 
     atomic species   magnetization
     Co              0.294
     F               0.100
     K               0.100
     Li              0.100

     48 Sym. Ops., with inversion, found


                                    s                        frac. trans.

      isym =  1     identity                                     

 cryst.   s( 1) = (     1          0          0      )
                  (     0          1          0      )
                  (     0          0          1      )

 cart.    s( 1) = (  1.0000000 -0.0000000  0.0000000 )
                  ( -0.0000000  1.0000000  0.0000000 )
                  ( -0.0000000  0.0000000  1.0000000 )


      isym =  2     180 deg rotation - cart. axis [0,0,1]        

 cryst.   s( 2) = (     0          1         -1      )
                  (     1          0         -1      )
                  (     0          0         -1      )

 cart.    s( 2) = ( -1.0000000  0.0000000  0.0000000 )
                  (  0.0000000 -1.0000000  0.0000000 )
                  (  0.0000000 -0.0000000  1.0000000 )


      isym =  3     180 deg rotation - cart. axis [0,1,0]        

 cryst.   s( 3) = (     0         -1          1      )
                  (     0         -1          0      )
                  (     1         -1          0      )

 cart.    s( 3) = ( -1.0000000 -0.0000000 -0.0000000 )
                  (  0.0000000  1.0000000 -0.0000000 )
                  (  0.0000000  0.0000000 -1.0000000 )


      isym =  4     180 deg rotation - cart. axis [1,0,0]        

 cryst.   s( 4) = (    -1          0          0      )
                  (    -1          0          1      )
                  (    -1          1          0      )

 cart.    s( 4) = (  1.0000000  0.0000000 -0.0000000 )
                  ( -0.0000000 -1.0000000 -0.0000000 )
                  ( -0.0000000 -0.0000000 -1.0000000 )


      isym =  5     180 deg rotation - cart. axis [1,1,0]        

 cryst.   s( 5) = (    -1          0          1      )
                  (     0         -1          1      )
                  (     0          0          1      )

 cart.    s( 5) = ( -0.0000000  1.0000000 -0.0000000 )
                  (  1.0000000 -0.0000000 -0.0000000 )
                  (  0.0000000 -0.0000000 -1.0000000 )


      isym =  6     180 deg rotation - cart. axis [1,-1,0]       

 cryst.   s( 6) = (     0         -1          0      )
                  (    -1          0          0      )
                  (     0          0         -1      )

 cart.    s( 6) = (  0.0000000 -1.0000000 -0.0000000 )
                  ( -1.0000000  0.0000000 -0.0000000 )
                  ( -0.0000000  0.0000000 -1.0000000 )


      isym =  7      90 deg rotation - cart. axis [0,0,-1]       

 cryst.   s( 7) = (     0          1          0      )
                  (     0          1         -1      )
                  (    -1          1          0      )

 cart.    s( 7) = (  0.0000000  1.0000000  0.0000000 )
                  ( -1.0000000 -0.0000000  0.0000000 )
                  ( -0.0000000 -0.0000000  1.0000000 )


      isym =  8      90 deg rotation - cart. axis [0,0,1]        

 cryst.   s( 8) = (     1          0         -1      )
                  (     1          0          0      )
                  (     1         -1          0      )

 cart.    s( 8) = ( -0.0000000 -1.0000000  0.0000000 )
                  (  1.0000000  0.0000000  0.0000000 )
                  (  0.0000000  0.0000000  1.0000000 )


      isym =  9     180 deg rotation - cart. axis [1,0,1]        

 cryst.   s( 9) = (    -1          1          0      )
                  (     0          1          0      )
                  (     0          1         -1      )

 cart.    s( 9) = (  0.0000000  0.0000000  1.0000000 )
                  (  0.0000000 -1.0000000 -0.0000000 )
                  (  1.0000000 -0.0000000 -0.0000000 )


      isym = 10     180 deg rotation - cart. axis [-1,0,1]       

 cryst.   s(10) = (     0          0         -1      )
                  (     0         -1          0      )
                  (    -1          0          0      )

 cart.    s(10) = ( -0.0000000  0.0000000 -1.0000000 )
                  ( -0.0000000 -1.0000000  0.0000000 )
                  ( -1.0000000 -0.0000000  0.0000000 )


      isym = 11      90 deg rotation - cart. axis [0,1,0]        

 cryst.   s(11) = (     0          0          1      )
                  (    -1          0          1      )
                  (     0         -1          1      )

 cart.    s(11) = ( -0.0000000 -0.0000000  1.0000000 )
                  ( -0.0000000  1.0000000 -0.0000000 )
                  ( -1.0000000  0.0000000 -0.0000000 )


      isym = 12      90 deg rotation - cart. axis [0,-1,0]       

 cryst.   s(12) = (     1         -1          0      )
                  (     1          0         -1      )
                  (     1          0          0      )

 cart.    s(12) = (  0.0000000 -0.0000000 -1.0000000 )
                  (  0.0000000  1.0000000  0.0000000 )
                  (  1.0000000  0.0000000  0.0000000 )


      isym = 13     180 deg rotation - cart. axis [0,1,1]        

 cryst.   s(13) = (     1          0          0      )
                  (     1         -1          0      )
                  (     1          0         -1      )

 cart.    s(13) = ( -1.0000000  0.0000000 -0.0000000 )
                  (  0.0000000  0.0000000  1.0000000 )
                  (  0.0000000  1.0000000  0.0000000 )


      isym = 14     180 deg rotation - cart. axis [0,1,-1]       

 cryst.   s(14) = (    -1          0          0      )
                  (     0          0         -1      )
                  (     0         -1          0      )

 cart.    s(14) = ( -1.0000000 -0.0000000  0.0000000 )
                  (  0.0000000 -0.0000000 -1.0000000 )
                  (  0.0000000 -1.0000000 -0.0000000 )


      isym = 15      90 deg rotation - cart. axis [-1,0,0]       

 cryst.   s(15) = (     0         -1          1      )
                  (     0          0          1      )
                  (    -1          0          1      )

 cart.    s(15) = (  1.0000000 -0.0000000 -0.0000000 )
                  ( -0.0000000 -0.0000000  1.0000000 )
                  ( -0.0000000 -1.0000000  0.0000000 )


      isym = 16      90 deg rotation - cart. axis [1,0,0]        

 cryst.   s(16) = (     0          1         -1      )
                  (    -1          1          0      )
                  (     0          1          0      )

 cart.    s(16) = (  1.0000000  0.0000000  0.0000000 )
                  ( -0.0000000  0.0000000 -1.0000000 )
                  ( -0.0000000  1.0000000 -0.0000000 )


      isym = 17     120 deg rotation - cart. axis [-1,-1,-1]     

 cryst.   s(17) = (     0          0          1      )
                  (     1          0          0      )
                  (     0          1          0      )

 cart.    s(17) = (  0.0000000  1.0000000 -0.0000000 )
                  (  0.0000000 -0.0000000  1.0000000 )
                  (  1.0000000 -0.0000000  0.0000000 )


      isym = 18     120 deg rotation - cart. axis [-1,1,1]       

 cryst.   s(18) = (     1         -1          0      )
                  (     0         -1          1      )
                  (     0         -1          0      )

 cart.    s(18) = ( -0.0000000 -1.0000000 -0.0000000 )
                  ( -0.0000000  0.0000000  1.0000000 )
                  ( -1.0000000  0.0000000  0.0000000 )


      isym = 19     120 deg rotation - cart. axis [1,1,-1]       

 cryst.   s(19) = (    -1          1          0      )
                  (    -1          0          0      )
                  (    -1          0          1      )

 cart.    s(19) = ( -0.0000000  1.0000000  0.0000000 )
                  ( -0.0000000 -0.0000000 -1.0000000 )
                  ( -1.0000000 -0.0000000 -0.0000000 )


      isym = 20     120 deg rotation - cart. axis [1,-1,1]       

 cryst.   s(20) = (     0          0         -1      )
                  (     0          1         -1      )
                  (     1          0         -1      )

 cart.    s(20) = (  0.0000000 -1.0000000  0.0000000 )
                  (  0.0000000  0.0000000 -1.0000000 )
                  (  1.0000000  0.0000000 -0.0000000 )


      isym = 21     120 deg rotation - cart. axis [1,1,1]        

 cryst.   s(21) = (     0          1          0      )
                  (     0          0          1      )
                  (     1          0          0      )

 cart.    s(21) = ( -0.0000000  0.0000000  1.0000000 )
                  (  1.0000000  0.0000000 -0.0000000 )
                  (  0.0000000  1.0000000 -0.0000000 )


      isym = 22     120 deg rotation - cart. axis [-1,1,-1]      

 cryst.   s(22) = (    -1          0          1      )
                  (    -1          1          0      )
                  (    -1          0          0      )

 cart.    s(22) = (  0.0000000 -0.0000000  1.0000000 )
                  ( -1.0000000 -0.0000000 -0.0000000 )
                  ( -0.0000000 -1.0000000 -0.0000000 )


      isym = 23     120 deg rotation - cart. axis [1,-1,-1]      

 cryst.   s(23) = (     1          0         -1      )
                  (     0          0         -1      )
                  (     0          1         -1      )

 cart.    s(23) = (  0.0000000  0.0000000 -1.0000000 )
                  ( -1.0000000  0.0000000  0.0000000 )
                  ( -0.0000000  1.0000000  0.0000000 )


      isym = 24     120 deg rotation - cart. axis [-1,-1,1]      

 cryst.   s(24) = (     0         -1          0      )
                  (     1         -1          0      )
                  (     0         -1          1      )

 cart.    s(24) = ( -0.0000000 -0.0000000 -1.0000000 )
                  (  1.0000000 -0.0000000  0.0000000 )
                  (  0.0000000 -1.0000000  0.0000000 )


      isym = 25     inversion                                    

 cryst.   s(25) = (    -1          0          0      )
                  (     0         -1          0      )
                  (     0          0         -1      )

 cart.    s(25) = ( -1.0000000  0.0000000 -0.0000000 )
                  (  0.0000000 -1.0000000 -0.0000000 )
                  (  0.0000000 -0.0000000 -1.0000000 )


      isym = 26     inv. 180 deg rotation - cart. axis [0,0,1]   

 cryst.   s(26) = (     0         -1          1      )
                  (    -1          0          1      )
                  (     0          0          1      )

 cart.    s(26) = (  1.0000000 -0.0000000 -0.0000000 )
                  ( -0.0000000  1.0000000 -0.0000000 )
                  ( -0.0000000  0.0000000 -1.0000000 )


      isym = 27     inv. 180 deg rotation - cart. axis [0,1,0]   

 cryst.   s(27) = (     0          1         -1      )
                  (     0          1          0      )
                  (    -1          1          0      )

 cart.    s(27) = (  1.0000000  0.0000000  0.0000000 )
                  ( -0.0000000 -1.0000000  0.0000000 )
                  ( -0.0000000 -0.0000000  1.0000000 )


      isym = 28     inv. 180 deg rotation - cart. axis [1,0,0]   

 cryst.   s(28) = (     1          0          0      )
                  (     1          0         -1      )
                  (     1         -1          0      )

 cart.    s(28) = ( -1.0000000 -0.0000000  0.0000000 )
                  (  0.0000000  1.0000000  0.0000000 )
                  (  0.0000000  0.0000000  1.0000000 )


      isym = 29     inv. 180 deg rotation - cart. axis [1,1,0]   

 cryst.   s(29) = (     1          0         -1      )
                  (     0          1         -1      )
                  (     0          0         -1      )

 cart.    s(29) = (  0.0000000 -1.0000000  0.0000000 )
                  ( -1.0000000  0.0000000  0.0000000 )
                  ( -0.0000000  0.0000000  1.0000000 )


      isym = 30     inv. 180 deg rotation - cart. axis [1,-1,0]  

 cryst.   s(30) = (     0          1          0      )
                  (     1          0          0      )
                  (     0          0          1      )

 cart.    s(30) = ( -0.0000000  1.0000000  0.0000000 )
                  (  1.0000000 -0.0000000  0.0000000 )
                  (  0.0000000 -0.0000000  1.0000000 )


      isym = 31     inv.  90 deg rotation - cart. axis [0,0,-1]  

 cryst.   s(31) = (     0         -1          0      )
                  (     0         -1          1      )
                  (     1         -1          0      )

 cart.    s(31) = ( -0.0000000 -1.0000000 -0.0000000 )
                  (  1.0000000  0.0000000 -0.0000000 )
                  (  0.0000000  0.0000000 -1.0000000 )


      isym = 32     inv.  90 deg rotation - cart. axis [0,0,1]   

 cryst.   s(32) = (    -1          0          1      )
                  (    -1          0          0      )
                  (    -1          1          0      )

 cart.    s(32) = (  0.0000000  1.0000000 -0.0000000 )
                  ( -1.0000000 -0.0000000 -0.0000000 )
                  ( -0.0000000 -0.0000000 -1.0000000 )


      isym = 33     inv. 180 deg rotation - cart. axis [1,0,1]   

 cryst.   s(33) = (     1         -1          0      )
                  (     0         -1          0      )
                  (     0         -1          1      )

 cart.    s(33) = ( -0.0000000 -0.0000000 -1.0000000 )
                  ( -0.0000000  1.0000000  0.0000000 )
                  ( -1.0000000  0.0000000  0.0000000 )


      isym = 34     inv. 180 deg rotation - cart. axis [-1,0,1]  

 cryst.   s(34) = (     0          0          1      )
                  (     0          1          0      )
                  (     1          0          0      )

 cart.    s(34) = (  0.0000000 -0.0000000  1.0000000 )
                  (  0.0000000  1.0000000 -0.0000000 )
                  (  1.0000000  0.0000000 -0.0000000 )


      isym = 35     inv.  90 deg rotation - cart. axis [0,1,0]   

 cryst.   s(35) = (     0          0         -1      )
                  (     1          0         -1      )
                  (     0          1         -1      )

 cart.    s(35) = (  0.0000000  0.0000000 -1.0000000 )
                  (  0.0000000 -1.0000000  0.0000000 )
                  (  1.0000000 -0.0000000  0.0000000 )


      isym = 36     inv.  90 deg rotation - cart. axis [0,-1,0]  

 cryst.   s(36) = (    -1          1          0      )
                  (    -1          0          1      )
                  (    -1          0          0      )

 cart.    s(36) = ( -0.0000000  0.0000000  1.0000000 )
                  ( -0.0000000 -1.0000000 -0.0000000 )
                  ( -1.0000000 -0.0000000 -0.0000000 )


      isym = 37     inv. 180 deg rotation - cart. axis [0,1,1]   

 cryst.   s(37) = (    -1          0          0      )
                  (    -1          1          0      )
                  (    -1          0          1      )

 cart.    s(37) = (  1.0000000 -0.0000000  0.0000000 )
                  ( -0.0000000 -0.0000000 -1.0000000 )
                  ( -0.0000000 -1.0000000 -0.0000000 )


      isym = 38     inv. 180 deg rotation - cart. axis [0,1,-1]  

 cryst.   s(38) = (     1          0          0      )
                  (     0          0          1      )
                  (     0          1          0      )

 cart.    s(38) = (  1.0000000  0.0000000 -0.0000000 )
                  ( -0.0000000  0.0000000  1.0000000 )
                  ( -0.0000000  1.0000000  0.0000000 )


      isym = 39     inv.  90 deg rotation - cart. axis [-1,0,0]  

 cryst.   s(39) = (     0          1         -1      )
                  (     0          0         -1      )
                  (     1          0         -1      )

 cart.    s(39) = ( -1.0000000  0.0000000  0.0000000 )
                  (  0.0000000  0.0000000 -1.0000000 )
                  (  0.0000000  1.0000000 -0.0000000 )


      isym = 40     inv.  90 deg rotation - cart. axis [1,0,0]   

 cryst.   s(40) = (     0         -1          1      )
                  (     1         -1          0      )
                  (     0         -1          0      )

 cart.    s(40) = ( -1.0000000 -0.0000000 -0.0000000 )
                  (  0.0000000 -0.0000000  1.0000000 )
                  (  0.0000000 -1.0000000  0.0000000 )


      isym = 41     inv. 120 deg rotation - cart. axis [-1,-1,-1]

 cryst.   s(41) = (     0          0         -1      )
                  (    -1          0          0      )
                  (     0         -1          0      )

 cart.    s(41) = ( -0.0000000 -1.0000000  0.0000000 )
                  ( -0.0000000  0.0000000 -1.0000000 )
                  ( -1.0000000  0.0000000 -0.0000000 )


      isym = 42     inv. 120 deg rotation - cart. axis [-1,1,1]  

 cryst.   s(42) = (    -1          1          0      )
                  (     0          1         -1      )
                  (     0          1          0      )

 cart.    s(42) = (  0.0000000  1.0000000  0.0000000 )
                  (  0.0000000 -0.0000000 -1.0000000 )
                  (  1.0000000 -0.0000000 -0.0000000 )


      isym = 43     inv. 120 deg rotation - cart. axis [1,1,-1]  

 cryst.   s(43) = (     1         -1          0      )
                  (     1          0          0      )
                  (     1          0         -1      )

 cart.    s(43) = (  0.0000000 -1.0000000 -0.0000000 )
                  (  0.0000000  0.0000000  1.0000000 )
                  (  1.0000000  0.0000000  0.0000000 )


      isym = 44     inv. 120 deg rotation - cart. axis [1,-1,1]  

 cryst.   s(44) = (     0          0          1      )
                  (     0         -1          1      )
                  (    -1          0          1      )

 cart.    s(44) = ( -0.0000000  1.0000000 -0.0000000 )
                  ( -0.0000000 -0.0000000  1.0000000 )
                  ( -1.0000000 -0.0000000  0.0000000 )


      isym = 45     inv. 120 deg rotation - cart. axis [1,1,1]   

 cryst.   s(45) = (     0         -1          0      )
                  (     0          0         -1      )
                  (    -1          0          0      )

 cart.    s(45) = (  0.0000000 -0.0000000 -1.0000000 )
                  ( -1.0000000 -0.0000000  0.0000000 )
                  ( -0.0000000 -1.0000000  0.0000000 )


      isym = 46     inv. 120 deg rotation - cart. axis [-1,1,-1] 

 cryst.   s(46) = (     1          0         -1      )
                  (     1         -1          0      )
                  (     1          0          0      )

 cart.    s(46) = ( -0.0000000  0.0000000 -1.0000000 )
                  (  1.0000000  0.0000000  0.0000000 )
                  (  0.0000000  1.0000000  0.0000000 )


      isym = 47     inv. 120 deg rotation - cart. axis [1,-1,-1] 

 cryst.   s(47) = (    -1          0          1      )
                  (     0          0          1      )
                  (     0         -1          1      )

 cart.    s(47) = ( -0.0000000 -0.0000000  1.0000000 )
                  (  1.0000000 -0.0000000 -0.0000000 )
                  (  0.0000000 -1.0000000 -0.0000000 )


      isym = 48     inv. 120 deg rotation - cart. axis [-1,-1,1] 

 cryst.   s(48) = (     0          1          0      )
                  (    -1          1          0      )
                  (     0          1         -1      )

 cart.    s(48) = (  0.0000000  0.0000000  1.0000000 )
                  ( -1.0000000  0.0000000 -0.0000000 )
                  ( -0.0000000  1.0000000 -0.0000000 )


   Cartesian axes

     site n.     atom                  positions (alat units)
         1        K      tau(   1) = (   0.3535534   0.3535534   1.0606602  )
         2        K      tau(   2) = (   0.3535534   1.0606602   1.0606602  )
         3        Li     tau(   3) = (   0.7071068   0.0000000   0.0000000  )
         4        Co     tau(   4) = (   0.0000000   0.0000000   0.0000000  )
         5        F      tau(   5) = (   1.1087434   0.0000000   0.0000000  )
         6        F      tau(   6) = (   0.7071068   0.4016367  -0.0000000  )
         7        F      tau(   7) = (  -0.0000000  -0.0000000   1.1087434  )
         8        F      tau(   8) = (   0.7071068   0.0000000   1.0125769  )
         9        F      tau(   9) = (   0.7071068   1.0125769   0.0000000  )
        10        F      tau(  10) = (   0.3054701  -0.0000000  -0.0000000  )

   Crystallographic axes

     site n.     atom                  positions (cryst. coord.)
         1        K      tau(   1) = (  0.7500000  0.7500000 -0.2500000  )
         2        K      tau(   2) = (  1.2500000  0.2500000  0.2500000  )
         3        Li     tau(   3) = ( -0.5000000  0.5000000  0.5000000  )
         4        Co     tau(   4) = (  0.0000000  0.0000000  0.0000000  )
         5        F      tau(   5) = ( -0.7840000  0.7840000  0.7840000  )
         6        F      tau(   6) = ( -0.2160000  0.2160000  0.7840000  )
         7        F      tau(   7) = (  0.7840000  0.7840000 -0.7840000  )
         8        F      tau(   8) = (  0.2160000  1.2160000 -0.2160000  )
         9        F      tau(   9) = (  0.2160000 -0.2160000  1.2160000  )
        10        F      tau(  10) = ( -0.2160000  0.2160000  0.2160000  )

     number of k points=    47  Marzari-Vanderbilt smearing, width (Ry)=  0.0200
                       cart. coord. in units 2pi/alat
        k(    1) = (   0.0000000   0.0000000   0.0000000), wk =   0.0010000
        k(    2) = (   0.0707107   0.0707107  -0.0707107), wk =   0.0080000
        k(    3) = (   0.1414214   0.1414214  -0.1414214), wk =   0.0080000
        k(    4) = (   0.2121320   0.2121320  -0.2121320), wk =   0.0080000
        k(    5) = (   0.2828427   0.2828427  -0.2828427), wk =   0.0080000
        k(    6) = (  -0.3535534  -0.3535534   0.3535534), wk =   0.0040000
        k(    7) = (   0.1414214  -0.0000000   0.0000000), wk =   0.0060000
        k(    8) = (   0.2121320   0.0707107  -0.0707107), wk =   0.0240000
        k(    9) = (   0.2828427   0.1414214  -0.1414214), wk =   0.0240000
        k(   10) = (   0.3535534   0.2121320  -0.2121320), wk =   0.0240000
        k(   11) = (  -0.2828427  -0.4242641   0.4242641), wk =   0.0240000
        k(   12) = (  -0.2121320  -0.3535534   0.3535534), wk =   0.0240000
        k(   13) = (  -0.1414214  -0.2828427   0.2828427), wk =   0.0240000
        k(   14) = (  -0.0707107  -0.2121320   0.2121320), wk =   0.0240000
        k(   15) = (   0.0000000  -0.1414214   0.1414214), wk =   0.0120000
        k(   16) = (   0.2828427  -0.0000000   0.0000000), wk =   0.0060000
        k(   17) = (   0.3535534   0.0707107  -0.0707107), wk =   0.0240000
        k(   18) = (   0.4242641   0.1414214  -0.1414214), wk =   0.0240000
        k(   19) = (  -0.2121320  -0.4949747   0.4949747), wk =   0.0240000
        k(   20) = (  -0.1414214  -0.4242641   0.4242641), wk =   0.0240000
        k(   21) = (  -0.0707107  -0.3535534   0.3535534), wk =   0.0240000
        k(   22) = (   0.0000000  -0.2828427   0.2828427), wk =   0.0120000
        k(   23) = (   0.4242641   0.0000000  -0.0000000), wk =   0.0060000
        k(   24) = (   0.4949747   0.0707107  -0.0707107), wk =   0.0240000
        k(   25) = (  -0.1414214  -0.5656854   0.5656854), wk =   0.0240000
        k(   26) = (  -0.0707107  -0.4949747   0.4949747), wk =   0.0240000
        k(   27) = (  -0.0000000  -0.4242641   0.4242641), wk =   0.0120000
        k(   28) = (   0.5656854  -0.0000000   0.0000000), wk =   0.0060000
        k(   29) = (  -0.0707107  -0.6363961   0.6363961), wk =   0.0240000
        k(   30) = (   0.0000000  -0.5656854   0.5656854), wk =   0.0120000
        k(   31) = (  -0.7071068   0.0000000   0.0000000), wk =   0.0030000
        k(   32) = (   0.2828427   0.1414214   0.0000000), wk =   0.0240000
        k(   33) = (   0.3535534   0.2121320  -0.0707107), wk =   0.0480000
        k(   34) = (  -0.2828427  -0.4242641   0.5656854), wk =   0.0480000
        k(   35) = (  -0.2121320  -0.3535534   0.4949747), wk =   0.0240000
        k(   36) = (   0.4242641   0.1414214  -0.0000000), wk =   0.0240000
        k(   37) = (  -0.2121320  -0.4949747   0.6363961), wk =   0.0480000
        k(   38) = (  -0.1414214  -0.4242641   0.5656854), wk =   0.0480000
        k(   39) = (  -0.0707107  -0.3535534   0.4949747), wk =   0.0480000
        k(   40) = (   0.0000000  -0.2828427   0.4242641), wk =   0.0240000
        k(   41) = (  -0.1414214  -0.5656854   0.7071068), wk =   0.0240000
        k(   42) = (  -0.0707107  -0.4949747   0.6363961), wk =   0.0480000
        k(   43) = (   0.0000000  -0.4242641   0.5656854), wk =   0.0240000
        k(   44) = (  -0.7071068   0.1414214   0.0000000), wk =   0.0120000
        k(   45) = (  -0.1414214  -0.4242641   0.7071068), wk =   0.0240000
        k(   46) = (  -0.0707107  -0.3535534   0.6363961), wk =   0.0240000
        k(   47) = (  -0.7071068   0.2828427   0.0000000), wk =   0.0120000

                       cryst. coord.
        k(    1) = (   0.0000000   0.0000000   0.0000000), wk =   0.0010000
        k(    2) = (  -0.0000000  -0.0000000   0.1000000), wk =   0.0080000
        k(    3) = (  -0.0000000  -0.0000000   0.2000000), wk =   0.0080000
        k(    4) = (   0.0000000   0.0000000   0.3000000), wk =   0.0080000
        k(    5) = (  -0.0000000  -0.0000000   0.4000000), wk =   0.0080000
        k(    6) = (  -0.0000000  -0.0000000  -0.5000000), wk =   0.0040000
        k(    7) = (  -0.0000000   0.1000000   0.1000000), wk =   0.0060000
        k(    8) = (  -0.0000000   0.1000000   0.2000000), wk =   0.0240000
        k(    9) = (  -0.0000000   0.1000000   0.3000000), wk =   0.0240000
        k(   10) = (  -0.0000000   0.1000000   0.4000000), wk =   0.0240000
        k(   11) = (   0.0000000   0.1000000  -0.5000000), wk =   0.0240000
        k(   12) = (  -0.0000000   0.1000000  -0.4000000), wk =   0.0240000
        k(   13) = (   0.0000000   0.1000000  -0.3000000), wk =   0.0240000
        k(   14) = (  -0.0000000   0.1000000  -0.2000000), wk =   0.0240000
        k(   15) = (   0.0000000   0.1000000  -0.1000000), wk =   0.0120000
        k(   16) = (  -0.0000000   0.2000000   0.2000000), wk =   0.0060000
        k(   17) = (   0.0000000   0.2000000   0.3000000), wk =   0.0240000
        k(   18) = (  -0.0000000   0.2000000   0.4000000), wk =   0.0240000
        k(   19) = (   0.0000000   0.2000000  -0.5000000), wk =   0.0240000
        k(   20) = (   0.0000000   0.2000000  -0.4000000), wk =   0.0240000
        k(   21) = (   0.0000000   0.2000000  -0.3000000), wk =   0.0240000
        k(   22) = (   0.0000000   0.2000000  -0.2000000), wk =   0.0120000
        k(   23) = (   0.0000000   0.3000000   0.3000000), wk =   0.0060000
        k(   24) = (  -0.0000000   0.3000000   0.4000000), wk =   0.0240000
        k(   25) = (   0.0000000   0.3000000  -0.5000000), wk =   0.0240000
        k(   26) = (   0.0000000   0.3000000  -0.4000000), wk =   0.0240000
        k(   27) = (   0.0000000   0.3000000  -0.3000000), wk =   0.0120000
        k(   28) = (  -0.0000000   0.4000000   0.4000000), wk =   0.0060000
        k(   29) = (   0.0000000   0.4000000  -0.5000000), wk =   0.0240000
        k(   30) = (   0.0000000   0.4000000  -0.4000000), wk =   0.0120000
        k(   31) = (   0.0000000  -0.5000000  -0.5000000), wk =   0.0030000
        k(   32) = (   0.1000000   0.2000000   0.3000000), wk =   0.0240000
        k(   33) = (   0.1000000   0.2000000   0.4000000), wk =   0.0480000
        k(   34) = (   0.1000000   0.2000000  -0.5000000), wk =   0.0480000
        k(   35) = (   0.1000000   0.2000000  -0.4000000), wk =   0.0240000
        k(   36) = (   0.1000000   0.3000000   0.4000000), wk =   0.0240000
        k(   37) = (   0.1000000   0.3000000  -0.5000000), wk =   0.0480000
        k(   38) = (   0.1000000   0.3000000  -0.4000000), wk =   0.0480000
        k(   39) = (   0.1000000   0.3000000  -0.3000000), wk =   0.0480000
        k(   40) = (   0.1000000   0.3000000  -0.2000000), wk =   0.0240000
        k(   41) = (   0.1000000   0.4000000  -0.5000000), wk =   0.0240000
        k(   42) = (   0.1000000   0.4000000  -0.4000000), wk =   0.0480000
        k(   43) = (   0.1000000   0.4000000  -0.3000000), wk =   0.0240000
        k(   44) = (   0.1000000  -0.5000000  -0.4000000), wk =   0.0120000
        k(   45) = (   0.2000000   0.4000000  -0.4000000), wk =   0.0240000
        k(   46) = (   0.2000000   0.4000000  -0.3000000), wk =   0.0240000
        k(   47) = (   0.2000000  -0.5000000  -0.3000000), wk =   0.0120000

     Dense  grid:   153421 G-vectors     FFT dimensions: (  75,  75,  75)

     Smooth grid:    54193 G-vectors     FFT dimensions: (  54,  54,  54)

     Dynamical RAM for                 wfc:       0.67 MB

     Dynamical RAM for     wfc (w. buffer):      10.06 MB

     Dynamical RAM for           str. fact:       1.17 MB

     Dynamical RAM for           local pot:       0.00 MB

     Dynamical RAM for          nlocal pot:       1.43 MB

     Dynamical RAM for                qrad:       7.03 MB

     Dynamical RAM for          rho,v,vnew:       4.33 MB

     Dynamical RAM for               rhoin:       1.44 MB

     Dynamical RAM for            rho*nmix:       9.36 MB

     Dynamical RAM for           G-vectors:       1.15 MB

     Dynamical RAM for          h,s,v(r/c):       0.12 MB

     Dynamical RAM for          <psi|beta>:       0.09 MB

     Dynamical RAM for      wfcinit/wfcrot:       1.57 MB

     Dynamical RAM for           addusdens:       8.57 MB

     Dynamical RAM for          addusforce:       8.78 MB

     Dynamical RAM for         addusstress:       8.71 MB

     Estimated static dynamical RAM per process >      30.65 MB

     Estimated max dynamical RAM per process >      48.80 MB

     Estimated total dynamical RAM >       2.23 GB

     Check: negative core charge=   -0.000005
     Generating pointlists ...
     new r_m :   0.1260 (alat units)  1.3462 (a.u.) for type    1
     new r_m :   0.1260 (alat units)  1.3462 (a.u.) for type    2
     new r_m :   0.2072 (alat units)  2.2136 (a.u.) for type    3
     new r_m :   0.1657 (alat units)  1.7699 (a.u.) for type    4

     The initial density is read from file :
     ./out/aiida.save/charge-density

     Starting wfcs are   58 randomized atomic wfcs
     Checking if some PAW data can be deallocated... 
       PAW data deallocated on   44 nodes for type:  3

     total cpu time spent up to now is        2.3 secs

     per-process dynamical memory:    44.1 Mb

     Self-consistent Calculation

     iteration #  1     ecut=    60.00 Ry     beta= 0.40
     ParO style diagonalization

---- Real-time Memory Report at c_bands before calling an iterative solver
            82 MiB given to the printing process from OS
            43 MiB allocation reported by mallinfo(arena+hblkhd)
        484670 MiB available memory on the node where the printing process lives
------------------
     ethr =  1.00E-05,  avg # of iterations = 16.4

     total cpu time spent up to now is       12.5 secs

     total energy              =    -827.14955304 Ry
     estimated scf accuracy    <       0.00467800 Ry

     total magnetization       =     3.92 Bohr mag/cell
     absolute magnetization    =     3.97 Bohr mag/cell

     iteration #  2     ecut=    60.00 Ry     beta= 0.40
     ParO style diagonalization

---- Real-time Memory Report at c_bands before calling an iterative solver
           103 MiB given to the printing process from OS
            55 MiB allocation reported by mallinfo(arena+hblkhd)
        483886 MiB available memory on the node where the printing process lives
------------------
     ethr =  5.85E-06,  avg # of iterations =  3.4

     total cpu time spent up to now is       15.6 secs

     total energy              =    -827.15069307 Ry
     estimated scf accuracy    <       0.00375508 Ry

     total magnetization       =     3.78 Bohr mag/cell
     absolute magnetization    =     3.83 Bohr mag/cell

     iteration #  3     ecut=    60.00 Ry     beta= 0.40
     ParO style diagonalization

---- Real-time Memory Report at c_bands before calling an iterative solver
           103 MiB given to the printing process from OS
            55 MiB allocation reported by mallinfo(arena+hblkhd)
        483871 MiB available memory on the node where the printing process lives
------------------
     ethr =  4.69E-06,  avg # of iterations =  2.1

     total cpu time spent up to now is       17.7 secs

     total energy              =    -827.13848564 Ry
     estimated scf accuracy    <       0.01075661 Ry

     total magnetization       =     3.45 Bohr mag/cell
     absolute magnetization    =     3.50 Bohr mag/cell

     iteration #  4     ecut=    60.00 Ry     beta= 0.40
     ParO style diagonalization

---- Real-time Memory Report at c_bands before calling an iterative solver
           104 MiB given to the printing process from OS
            56 MiB allocation reported by mallinfo(arena+hblkhd)
        483853 MiB available memory on the node where the printing process lives
------------------
     ethr =  4.69E-06,  avg # of iterations =  5.3

     total cpu time spent up to now is       21.7 secs

     total energy              =    -827.14508154 Ry
     estimated scf accuracy    <       0.00946400 Ry

     total magnetization       =     4.20 Bohr mag/cell
     absolute magnetization    =     4.26 Bohr mag/cell

     iteration #  5     ecut=    60.00 Ry     beta= 0.40
     ParO style diagonalization

---- Real-time Memory Report at c_bands before calling an iterative solver
           105 MiB given to the printing process from OS
            56 MiB allocation reported by mallinfo(arena+hblkhd)
        483846 MiB available memory on the node where the printing process lives
------------------
     ethr =  4.69E-06,  avg # of iterations =  5.6

     total cpu time spent up to now is       25.9 secs

     total energy              =    -827.12911861 Ry
     estimated scf accuracy    <       0.03473332 Ry

     total magnetization       =     2.71 Bohr mag/cell
     absolute magnetization    =     2.78 Bohr mag/cell

     iteration #  6     ecut=    60.00 Ry     beta= 0.40
     ParO style diagonalization

---- Real-time Memory Report at c_bands before calling an iterative solver
           105 MiB given to the printing process from OS
            57 MiB allocation reported by mallinfo(arena+hblkhd)
        483829 MiB available memory on the node where the printing process lives
------------------
     ethr =  4.69E-06,  avg # of iterations =  5.4

     total cpu time spent up to now is       30.0 secs

     total energy              =    -827.14477379 Ry
     estimated scf accuracy    <       0.00617397 Ry

     total magnetization       =     4.20 Bohr mag/cell
     absolute magnetization    =     4.26 Bohr mag/cell

     iteration #  7     ecut=    60.00 Ry     beta= 0.40
     ParO style diagonalization

---- Real-time Memory Report at c_bands before calling an iterative solver
           106 MiB given to the printing process from OS
            57 MiB allocation reported by mallinfo(arena+hblkhd)
        483819 MiB available memory on the node where the printing process lives
------------------
     ethr =  4.69E-06,  avg # of iterations =  2.3

     total cpu time spent up to now is       32.2 secs

     total energy              =    -827.14687887 Ry
     estimated scf accuracy    <       0.01335838 Ry

     total magnetization       =     4.18 Bohr mag/cell
     absolute magnetization    =     4.24 Bohr mag/cell

     iteration #  8     ecut=    60.00 Ry     beta= 0.40
     ParO style diagonalization

---- Real-time Memory Report at c_bands before calling an iterative solver
           107 MiB given to the printing process from OS
            58 MiB allocation reported by mallinfo(arena+hblkhd)
        483808 MiB available memory on the node where the printing process lives
------------------
     ethr =  4.69E-06,  avg # of iterations =  5.4

     total cpu time spent up to now is       36.2 secs

     total energy              =    -827.12333269 Ry
     estimated scf accuracy    <       0.01906146 Ry

     total magnetization       =     3.15 Bohr mag/cell
     absolute magnetization    =     3.21 Bohr mag/cell

     iteration #  9     ecut=    60.00 Ry     beta= 0.40
     ParO style diagonalization

---- Real-time Memory Report at c_bands before calling an iterative solver
           107 MiB given to the printing process from OS
            58 MiB allocation reported by mallinfo(arena+hblkhd)
        483799 MiB available memory on the node where the printing process lives
------------------
     ethr =  4.69E-06,  avg # of iterations =  5.5

     total cpu time spent up to now is       40.4 secs

     total energy              =    -827.14386522 Ry
     estimated scf accuracy    <       0.02824076 Ry

     total magnetization       =     4.10 Bohr mag/cell
     absolute magnetization    =     4.17 Bohr mag/cell

     iteration # 10     ecut=    60.00 Ry     beta= 0.40
     ParO style diagonalization

---- Real-time Memory Report at c_bands before calling an iterative solver
           108 MiB given to the printing process from OS
            59 MiB allocation reported by mallinfo(arena+hblkhd)
        483788 MiB available memory on the node where the printing process lives
------------------
     ethr =  4.69E-06,  avg # of iterations =  2.1

     total cpu time spent up to now is       42.5 secs

     total energy              =    -827.14831416 Ry
     estimated scf accuracy    <       0.01816781 Ry

     total magnetization       =     4.15 Bohr mag/cell
     absolute magnetization    =     4.21 Bohr mag/cell

     iteration # 11     ecut=    60.00 Ry     beta= 0.40
     ParO style diagonalization

---- Real-time Memory Report at c_bands before calling an iterative solver
           108 MiB given to the printing process from OS
            59 MiB allocation reported by mallinfo(arena+hblkhd)
        483782 MiB available memory on the node where the printing process lives
------------------
     ethr =  4.69E-06,  avg # of iterations =  5.1

     total cpu time spent up to now is       46.6 secs

     total energy              =    -827.06207558 Ry
     estimated scf accuracy    <       0.00483893 Ry

     total magnetization       =     3.87 Bohr mag/cell
     absolute magnetization    =     3.92 Bohr mag/cell

     iteration # 12     ecut=    60.00 Ry     beta= 0.40
     ParO style diagonalization

---- Real-time Memory Report at c_bands before calling an iterative solver
           108 MiB given to the printing process from OS
            59 MiB allocation reported by mallinfo(arena+hblkhd)
        483782 MiB available memory on the node where the printing process lives
------------------
     ethr =  4.69E-06,  avg # of iterations =  6.7

     total cpu time spent up to now is       52.0 secs

     total energy              =    -827.09359142 Ry
     estimated scf accuracy    <       0.24517984 Ry

     total magnetization       =     4.00 Bohr mag/cell
     absolute magnetization    =     4.13 Bohr mag/cell

     iteration # 13     ecut=    60.00 Ry     beta= 0.40
     ParO style diagonalization

---- Real-time Memory Report at c_bands before calling an iterative solver
           108 MiB given to the printing process from OS
            59 MiB allocation reported by mallinfo(arena+hblkhd)
        483774 MiB available memory on the node where the printing process lives
------------------
     ethr =  4.69E-06,  avg # of iterations =  2.6

     total cpu time spent up to now is       54.3 secs

     total energy              =    -827.13116573 Ry
     estimated scf accuracy    <       0.20023165 Ry

     total magnetization       =     4.00 Bohr mag/cell
     absolute magnetization    =     4.12 Bohr mag/cell

     iteration # 14     ecut=    60.00 Ry     beta= 0.40
     ParO style diagonalization

---- Real-time Memory Report at c_bands before calling an iterative solver
           108 MiB given to the printing process from OS
            59 MiB allocation reported by mallinfo(arena+hblkhd)
        483773 MiB available memory on the node where the printing process lives
------------------
     ethr =  4.69E-06,  avg # of iterations =  5.6

     total cpu time spent up to now is       58.7 secs

     total energy              =    -827.13168712 Ry
     estimated scf accuracy    <       0.06600546 Ry

     total magnetization       =     4.01 Bohr mag/cell
     absolute magnetization    =     4.09 Bohr mag/cell

     iteration # 15     ecut=    60.00 Ry     beta= 0.40
     ParO style diagonalization

---- Real-time Memory Report at c_bands before calling an iterative solver
           108 MiB given to the printing process from OS
            59 MiB allocation reported by mallinfo(arena+hblkhd)
        483771 MiB available memory on the node where the printing process lives
------------------
     ethr =  4.69E-06,  avg # of iterations =  2.0

     total cpu time spent up to now is       60.6 secs

     total energy              =    -827.13595022 Ry
     estimated scf accuracy    <       0.07002795 Ry

     total magnetization       =     4.01 Bohr mag/cell
     absolute magnetization    =     4.09 Bohr mag/cell

     iteration # 16     ecut=    60.00 Ry     beta= 0.40
     ParO style diagonalization

---- Real-time Memory Report at c_bands before calling an iterative solver
           109 MiB given to the printing process from OS
            59 MiB allocation reported by mallinfo(arena+hblkhd)
        483766 MiB available memory on the node where the printing process lives
------------------
     ethr =  4.69E-06,  avg # of iterations =  2.1

     total cpu time spent up to now is       62.7 secs

     total energy              =    -826.95649897 Ry
     estimated scf accuracy    <       0.05380294 Ry

     total magnetization       =     4.03 Bohr mag/cell
     absolute magnetization    =     4.11 Bohr mag/cell

     iteration # 17     ecut=    60.00 Ry     beta= 0.40
     ParO style diagonalization

---- Real-time Memory Report at c_bands before calling an iterative solver
           109 MiB given to the printing process from OS
            59 MiB allocation reported by mallinfo(arena+hblkhd)
        483761 MiB available memory on the node where the printing process lives
------------------
     ethr =  4.69E-06,  avg # of iterations =  7.3

     total cpu time spent up to now is       68.3 secs

     total energy              =    -827.11828618 Ry
     estimated scf accuracy    <       0.57851377 Ry

     total magnetization       =     4.00 Bohr mag/cell
     absolute magnetization    =     4.19 Bohr mag/cell

     iteration # 18     ecut=    60.00 Ry     beta= 0.40
     ParO style diagonalization

---- Real-time Memory Report at c_bands before calling an iterative solver
           109 MiB given to the printing process from OS
            59 MiB allocation reported by mallinfo(arena+hblkhd)
        483754 MiB available memory on the node where the printing process lives
------------------
     ethr =  4.69E-06,  avg # of iterations =  8.3

     total cpu time spent up to now is       74.4 secs

     total energy              =    -827.12478778 Ry
     estimated scf accuracy    <       0.05456359 Ry

     total magnetization       =     2.31 Bohr mag/cell
     absolute magnetization    =     2.38 Bohr mag/cell

     iteration # 19     ecut=    60.00 Ry     beta= 0.40
     ParO style diagonalization

---- Real-time Memory Report at c_bands before calling an iterative solver
           109 MiB given to the printing process from OS
            59 MiB allocation reported by mallinfo(arena+hblkhd)
        483753 MiB available memory on the node where the printing process lives
------------------
     ethr =  4.69E-06,  avg # of iterations =  5.5

     total cpu time spent up to now is       78.6 secs

     total energy              =    -827.13747988 Ry
     estimated scf accuracy    <       0.00447993 Ry

     total magnetization       =     4.18 Bohr mag/cell
     absolute magnetization    =     4.23 Bohr mag/cell

     iteration # 20     ecut=    60.00 Ry     beta= 0.40
     ParO style diagonalization

---- Real-time Memory Report at c_bands before calling an iterative solver
           109 MiB given to the printing process from OS
            59 MiB allocation reported by mallinfo(arena+hblkhd)
        483752 MiB available memory on the node where the printing process lives
------------------
     ethr =  4.69E-06,  avg # of iterations =  4.9

     total cpu time spent up to now is       82.7 secs

     total energy              =    -827.14004585 Ry
     estimated scf accuracy    <       0.04565858 Ry

     total magnetization       =     4.04 Bohr mag/cell
     absolute magnetization    =     4.11 Bohr mag/cell

     iteration # 21     ecut=    60.00 Ry     beta= 0.40
     ParO style diagonalization

---- Real-time Memory Report at c_bands before calling an iterative solver
           109 MiB given to the printing process from OS
            59 MiB allocation reported by mallinfo(arena+hblkhd)
        483750 MiB available memory on the node where the printing process lives
------------------
     ethr =  4.69E-06,  avg # of iterations =  2.1

     total cpu time spent up to now is       84.7 secs

     total energy              =    -827.14047101 Ry
     estimated scf accuracy    <       0.03494883 Ry

     total magnetization       =     4.07 Bohr mag/cell
     absolute magnetization    =     4.14 Bohr mag/cell

     iteration # 22     ecut=    60.00 Ry     beta= 0.40
     ParO style diagonalization

---- Real-time Memory Report at c_bands before calling an iterative solver
           109 MiB given to the printing process from OS
            59 MiB allocation reported by mallinfo(arena+hblkhd)
        483750 MiB available memory on the node where the printing process lives
------------------
     ethr =  4.69E-06,  avg # of iterations =  2.0

     total cpu time spent up to now is       86.6 secs

     total energy              =    -827.13908281 Ry
     estimated scf accuracy    <       0.03296563 Ry

     total magnetization       =     4.08 Bohr mag/cell
     absolute magnetization    =     4.14 Bohr mag/cell

     iteration # 23     ecut=    60.00 Ry     beta= 0.40
     ParO style diagonalization

---- Real-time Memory Report at c_bands before calling an iterative solver
           109 MiB given to the printing process from OS
            59 MiB allocation reported by mallinfo(arena+hblkhd)
        483746 MiB available memory on the node where the printing process lives
------------------
     ethr =  4.69E-06,  avg # of iterations =  2.0

     total cpu time spent up to now is       88.5 secs

     total energy              =    -827.13929338 Ry
     estimated scf accuracy    <       0.03868502 Ry

     total magnetization       =     4.06 Bohr mag/cell
     absolute magnetization    =     4.13 Bohr mag/cell

     iteration # 24     ecut=    60.00 Ry     beta= 0.40
     ParO style diagonalization

---- Real-time Memory Report at c_bands before calling an iterative solver
           109 MiB given to the printing process from OS
            59 MiB allocation reported by mallinfo(arena+hblkhd)
        483744 MiB available memory on the node where the printing process lives
------------------
     ethr =  4.69E-06,  avg # of iterations =  2.0

     total cpu time spent up to now is       90.4 secs

     total energy              =    -827.13956746 Ry
     estimated scf accuracy    <       0.03767552 Ry

     total magnetization       =     4.06 Bohr mag/cell
     absolute magnetization    =     4.13 Bohr mag/cell

     iteration # 25     ecut=    60.00 Ry     beta= 0.40
     ParO style diagonalization

---- Real-time Memory Report at c_bands before calling an iterative solver
           109 MiB given to the printing process from OS
            59 MiB allocation reported by mallinfo(arena+hblkhd)
        483741 MiB available memory on the node where the printing process lives
------------------
     ethr =  4.69E-06,  avg # of iterations =  2.0

     total cpu time spent up to now is       92.4 secs

     total energy              =    -827.13980010 Ry
     estimated scf accuracy    <       0.03650428 Ry

     total magnetization       =     4.06 Bohr mag/cell
     absolute magnetization    =     4.13 Bohr mag/cell

     iteration # 26     ecut=    60.00 Ry     beta= 0.40
     ParO style diagonalization

---- Real-time Memory Report at c_bands before calling an iterative solver
           109 MiB given to the printing process from OS
            59 MiB allocation reported by mallinfo(arena+hblkhd)
        483733 MiB available memory on the node where the printing process lives
------------------
     ethr =  4.69E-06,  avg # of iterations =  2.0

     total cpu time spent up to now is       94.3 secs

     total energy              =    -827.14162304 Ry
     estimated scf accuracy    <       0.03594433 Ry

     total magnetization       =     4.06 Bohr mag/cell
     absolute magnetization    =     4.14 Bohr mag/cell

     iteration # 27     ecut=    60.00 Ry     beta= 0.40
     ParO style diagonalization

---- Real-time Memory Report at c_bands before calling an iterative solver
           110 MiB given to the printing process from OS
            59 MiB allocation reported by mallinfo(arena+hblkhd)
        483733 MiB available memory on the node where the printing process lives
------------------
     ethr =  4.69E-06,  avg # of iterations =  2.0

     total cpu time spent up to now is       96.2 secs

     total energy              =    -827.14882367 Ry
     estimated scf accuracy    <       0.02900735 Ry

     total magnetization       =     4.10 Bohr mag/cell
     absolute magnetization    =     4.16 Bohr mag/cell

     iteration # 28     ecut=    60.00 Ry     beta= 0.40
     ParO style diagonalization

---- Real-time Memory Report at c_bands before calling an iterative solver
           110 MiB given to the printing process from OS
            59 MiB allocation reported by mallinfo(arena+hblkhd)
        483733 MiB available memory on the node where the printing process lives
------------------
     ethr =  4.69E-06,  avg # of iterations =  5.2

     total cpu time spent up to now is      100.2 secs

     total energy              =    -827.15062890 Ry
     estimated scf accuracy    <       0.00599028 Ry

     total magnetization       =     3.84 Bohr mag/cell
     absolute magnetization    =     3.89 Bohr mag/cell

     iteration # 29     ecut=    60.00 Ry     beta= 0.40
     ParO style diagonalization

---- Real-time Memory Report at c_bands before calling an iterative solver
           110 MiB given to the printing process from OS
            59 MiB allocation reported by mallinfo(arena+hblkhd)
        483727 MiB available memory on the node where the printing process lives
------------------
     ethr =  4.69E-06,  avg # of iterations =  4.0

     total cpu time spent up to now is      103.4 secs

     total energy              =    -827.13321345 Ry
     estimated scf accuracy    <       0.02332213 Ry

     total magnetization       =     3.04 Bohr mag/cell
     absolute magnetization    =     3.10 Bohr mag/cell

     iteration # 30     ecut=    60.00 Ry     beta= 0.40
     ParO style diagonalization

---- Real-time Memory Report at c_bands before calling an iterative solver
           110 MiB given to the printing process from OS
            59 MiB allocation reported by mallinfo(arena+hblkhd)
        483727 MiB available memory on the node where the printing process lives
------------------
     ethr =  4.69E-06,  avg # of iterations =  5.1

     total cpu time spent up to now is      107.4 secs

     total energy              =    -827.14423285 Ry
     estimated scf accuracy    <       0.00782526 Ry

     total magnetization       =     4.20 Bohr mag/cell
     absolute magnetization    =     4.26 Bohr mag/cell

     iteration # 31     ecut=    60.00 Ry     beta= 0.40
     ParO style diagonalization

---- Real-time Memory Report at c_bands before calling an iterative solver
           110 MiB given to the printing process from OS
            59 MiB allocation reported by mallinfo(arena+hblkhd)
        483727 MiB available memory on the node where the printing process lives
------------------
     ethr =  4.69E-06,  avg # of iterations =  2.3

     total cpu time spent up to now is      109.5 secs

     total energy              =    -827.14775816 Ry
     estimated scf accuracy    <       0.01605660 Ry

     total magnetization       =     4.16 Bohr mag/cell
     absolute magnetization    =     4.22 Bohr mag/cell

     iteration # 32     ecut=    60.00 Ry     beta= 0.40
     ParO style diagonalization

---- Real-time Memory Report at c_bands before calling an iterative solver
           110 MiB given to the printing process from OS
            59 MiB allocation reported by mallinfo(arena+hblkhd)
        483726 MiB available memory on the node where the printing process lives
------------------
     ethr =  4.69E-06,  avg # of iterations =  3.9

     total cpu time spent up to now is      112.7 secs

     total energy              =    -827.14125412 Ry
     estimated scf accuracy    <       0.00403513 Ry

     total magnetization       =     4.13 Bohr mag/cell
     absolute magnetization    =     4.18 Bohr mag/cell

     iteration # 33     ecut=    60.00 Ry     beta= 0.40
     ParO style diagonalization

---- Real-time Memory Report at c_bands before calling an iterative solver
           110 MiB given to the printing process from OS
            59 MiB allocation reported by mallinfo(arena+hblkhd)
        483726 MiB available memory on the node where the printing process lives
------------------
     ethr =  4.69E-06,  avg # of iterations =  4.0

     total cpu time spent up to now is      116.0 secs

     total energy              =    -827.14355631 Ry
     estimated scf accuracy    <       0.02699814 Ry

     total magnetization       =     4.11 Bohr mag/cell
     absolute magnetization    =     4.17 Bohr mag/cell

     iteration # 34     ecut=    60.00 Ry     beta= 0.40
     ParO style diagonalization

---- Real-time Memory Report at c_bands before calling an iterative solver
           110 MiB given to the printing process from OS
            59 MiB allocation reported by mallinfo(arena+hblkhd)
        483724 MiB available memory on the node where the printing process lives
------------------
     ethr =  4.69E-06,  avg # of iterations =  2.0

     total cpu time spent up to now is      117.9 secs

     total energy              =    -827.13899287 Ry
     estimated scf accuracy    <       0.01980691 Ry

     total magnetization       =     4.14 Bohr mag/cell
     absolute magnetization    =     4.21 Bohr mag/cell

     iteration # 35     ecut=    60.00 Ry     beta= 0.40
     ParO style diagonalization

---- Real-time Memory Report at c_bands before calling an iterative solver
           110 MiB given to the printing process from OS
            59 MiB allocation reported by mallinfo(arena+hblkhd)
        483717 MiB available memory on the node where the printing process lives
------------------
     ethr =  4.69E-06,  avg # of iterations =  2.5

     total cpu time spent up to now is      120.2 secs

     total energy              =    -827.12590310 Ry
     estimated scf accuracy    <       0.04206796 Ry

     total magnetization       =     4.05 Bohr mag/cell
     absolute magnetization    =     4.13 Bohr mag/cell

     iteration # 36     ecut=    60.00 Ry     beta= 0.40
     ParO style diagonalization

---- Real-time Memory Report at c_bands before calling an iterative solver
           110 MiB given to the printing process from OS
            59 MiB allocation reported by mallinfo(arena+hblkhd)
        483717 MiB available memory on the node where the printing process lives
------------------
     ethr =  4.69E-06,  avg # of iterations =  6.4

     total cpu time spent up to now is      125.4 secs

     total energy              =    -827.12971272 Ry
     estimated scf accuracy    <       0.18186052 Ry

     total magnetization       =     0.41 Bohr mag/cell
     absolute magnetization    =     0.79 Bohr mag/cell

     iteration # 37     ecut=    60.00 Ry     beta= 0.40
     ParO style diagonalization

---- Real-time Memory Report at c_bands before calling an iterative solver
           110 MiB given to the printing process from OS
            59 MiB allocation reported by mallinfo(arena+hblkhd)
        483715 MiB available memory on the node where the printing process lives
------------------
     ethr =  4.69E-06,  avg # of iterations =  5.5

     total cpu time spent up to now is      129.7 secs

     total energy              =    -827.10708415 Ry
     estimated scf accuracy    <       0.03130522 Ry

     total magnetization       =     2.82 Bohr mag/cell
     absolute magnetization    =     2.88 Bohr mag/cell

     iteration # 38     ecut=    60.00 Ry     beta= 0.40
     ParO style diagonalization

---- Real-time Memory Report at c_bands before calling an iterative solver
           110 MiB given to the printing process from OS
            59 MiB allocation reported by mallinfo(arena+hblkhd)
        483715 MiB available memory on the node where the printing process lives
------------------
     ethr =  4.69E-06,  avg # of iterations =  5.8

     total cpu time spent up to now is      134.4 secs

     total energy              =    -827.12242776 Ry
     estimated scf accuracy    <       0.04426823 Ry

     total magnetization       =     4.05 Bohr mag/cell
     absolute magnetization    =     4.12 Bohr mag/cell

     iteration # 39     ecut=    60.00 Ry     beta= 0.40
     ParO style diagonalization

---- Real-time Memory Report at c_bands before calling an iterative solver
           110 MiB given to the printing process from OS
            59 MiB allocation reported by mallinfo(arena+hblkhd)
        483714 MiB available memory on the node where the printing process lives
------------------
     ethr =  4.69E-06,  avg # of iterations =  6.7

     total cpu time spent up to now is      139.7 secs

     total energy              =    -827.16296587 Ry
     estimated scf accuracy    <       0.18463073 Ry

     total magnetization       =     0.28 Bohr mag/cell
     absolute magnetization    =     0.70 Bohr mag/cell

     iteration # 40     ecut=    60.00 Ry     beta= 0.40
     ParO style diagonalization

---- Real-time Memory Report at c_bands before calling an iterative solver
           110 MiB given to the printing process from OS
            59 MiB allocation reported by mallinfo(arena+hblkhd)
        483714 MiB available memory on the node where the printing process lives
------------------
     ethr =  4.69E-06,  avg # of iterations =  4.5

     total cpu time spent up to now is      143.7 secs

     total energy              =    -827.16746291 Ry
     estimated scf accuracy    <       0.11781458 Ry

     total magnetization       =     1.36 Bohr mag/cell
     absolute magnetization    =     1.48 Bohr mag/cell

     iteration # 41     ecut=    60.00 Ry     beta= 0.40
     ParO style diagonalization

---- Real-time Memory Report at c_bands before calling an iterative solver
           110 MiB given to the printing process from OS
            59 MiB allocation reported by mallinfo(arena+hblkhd)
        483709 MiB available memory on the node where the printing process lives
------------------
     ethr =  4.69E-06,  avg # of iterations =  2.0

     total cpu time spent up to now is      145.6 secs

     total energy              =    -827.17055341 Ry
     estimated scf accuracy    <       0.10658746 Ry

     total magnetization       =     1.51 Bohr mag/cell
     absolute magnetization    =     1.62 Bohr mag/cell

     iteration # 42     ecut=    60.00 Ry     beta= 0.40
     ParO style diagonalization

---- Real-time Memory Report at c_bands before calling an iterative solver
           110 MiB given to the printing process from OS
            59 MiB allocation reported by mallinfo(arena+hblkhd)
        483709 MiB available memory on the node where the printing process lives
------------------
     ethr =  4.69E-06,  avg # of iterations =  2.0

     total cpu time spent up to now is      147.5 secs

     total energy              =    -827.18187609 Ry
     estimated scf accuracy    <       0.12270254 Ry

     total magnetization       =     1.29 Bohr mag/cell
     absolute magnetization    =     1.43 Bohr mag/cell

     iteration # 43     ecut=    60.00 Ry     beta= 0.40
     ParO style diagonalization

---- Real-time Memory Report at c_bands before calling an iterative solver
           110 MiB given to the printing process from OS
            59 MiB allocation reported by mallinfo(arena+hblkhd)
        483707 MiB available memory on the node where the printing process lives
------------------
     ethr =  4.69E-06,  avg # of iterations =  3.8

     total cpu time spent up to now is      150.6 secs

     total energy              =    -827.22826060 Ry
     estimated scf accuracy    <       0.17052549 Ry

     total magnetization       =     0.61 Bohr mag/cell
     absolute magnetization    =     0.92 Bohr mag/cell

     iteration # 44     ecut=    60.00 Ry     beta= 0.40
     ParO style diagonalization

---- Real-time Memory Report at c_bands before calling an iterative solver
           110 MiB given to the printing process from OS
            59 MiB allocation reported by mallinfo(arena+hblkhd)
        483707 MiB available memory on the node where the printing process lives
------------------
     ethr =  4.69E-06,  avg # of iterations =  5.7
     Minimization algorithm failed to find Fermi energy: reverting to bisection
     Possible cause: smearing is larger than the electronic band-gap.

     total cpu time spent up to now is      155.2 secs

     total energy              =    -827.19010620 Ry
     estimated scf accuracy    <       0.07988241 Ry

     total magnetization       =     0.00 Bohr mag/cell
     absolute magnetization    =     0.37 Bohr mag/cell

     iteration # 45     ecut=    60.00 Ry     beta= 0.40
     ParO style diagonalization

---- Real-time Memory Report at c_bands before calling an iterative solver
           110 MiB given to the printing process from OS
            59 MiB allocation reported by mallinfo(arena+hblkhd)
        483707 MiB available memory on the node where the printing process lives
------------------
     ethr =  4.69E-06,  avg # of iterations =  5.6

     total cpu time spent up to now is      159.6 secs

     total energy              =    -827.17557022 Ry
     estimated scf accuracy    <       0.18433152 Ry

     total magnetization       =     0.26 Bohr mag/cell
     absolute magnetization    =     0.69 Bohr mag/cell

     iteration # 46     ecut=    60.00 Ry     beta= 0.40
     ParO style diagonalization

---- Real-time Memory Report at c_bands before calling an iterative solver
           110 MiB given to the printing process from OS
            59 MiB allocation reported by mallinfo(arena+hblkhd)
        483707 MiB available memory on the node where the printing process lives
------------------
     ethr =  4.69E-06,  avg # of iterations =  4.1

     total cpu time spent up to now is      162.8 secs

     total energy              =    -826.88522055 Ry
     estimated scf accuracy    <       0.15261629 Ry

     total magnetization       =     0.87 Bohr mag/cell
     absolute magnetization    =     1.10 Bohr mag/cell

     iteration # 47     ecut=    60.00 Ry     beta= 0.40
     ParO style diagonalization

---- Real-time Memory Report at c_bands before calling an iterative solver
           110 MiB given to the printing process from OS
            59 MiB allocation reported by mallinfo(arena+hblkhd)
        483704 MiB available memory on the node where the printing process lives
------------------
     ethr =  4.69E-06,  avg # of iterations =  7.9

     total cpu time spent up to now is      168.7 secs

     total energy              =    -827.12904745 Ry
     estimated scf accuracy    <       0.21435234 Ry

     total magnetization       =     4.00 Bohr mag/cell
     absolute magnetization    =     4.12 Bohr mag/cell

     iteration # 48     ecut=    60.00 Ry     beta= 0.40
     ParO style diagonalization

---- Real-time Memory Report at c_bands before calling an iterative solver
           110 MiB given to the printing process from OS
            59 MiB allocation reported by mallinfo(arena+hblkhd)
        483700 MiB available memory on the node where the printing process lives
------------------
     ethr =  4.69E-06,  avg # of iterations =  7.6

     total cpu time spent up to now is      174.6 secs

     total energy              =    -827.20190497 Ry
     estimated scf accuracy    <       0.12421052 Ry

     total magnetization       =     1.29 Bohr mag/cell
     absolute magnetization    =     1.42 Bohr mag/cell

     iteration # 49     ecut=    60.00 Ry     beta= 0.40
     ParO style diagonalization

---- Real-time Memory Report at c_bands before calling an iterative solver
           110 MiB given to the printing process from OS
            59 MiB allocation reported by mallinfo(arena+hblkhd)
        483700 MiB available memory on the node where the printing process lives
------------------
     ethr =  4.69E-06,  avg # of iterations =  5.7
     Minimization algorithm failed to find Fermi energy: reverting to bisection
     Possible cause: smearing is larger than the electronic band-gap.

     total cpu time spent up to now is      179.1 secs

     total energy              =    -827.23419901 Ry
     estimated scf accuracy    <       0.11483995 Ry

     total magnetization       =     0.00 Bohr mag/cell
     absolute magnetization    =     0.44 Bohr mag/cell

     iteration # 50     ecut=    60.00 Ry     beta= 0.40
     ParO style diagonalization

---- Real-time Memory Report at c_bands before calling an iterative solver
           110 MiB given to the printing process from OS
            59 MiB allocation reported by mallinfo(arena+hblkhd)
        483700 MiB available memory on the node where the printing process lives
------------------
     ethr =  4.69E-06,  avg # of iterations =  2.0
     Minimization algorithm failed to find Fermi energy: reverting to bisection
     Possible cause: smearing is larger than the electronic band-gap.

     total cpu time spent up to now is      181.1 secs

     total energy              =    -827.26497668 Ry
     estimated scf accuracy    <       0.11754028 Ry

     total magnetization       =     0.00 Bohr mag/cell
     absolute magnetization    =     0.44 Bohr mag/cell

     iteration # 51     ecut=    60.00 Ry     beta= 0.40
     ParO style diagonalization

---- Real-time Memory Report at c_bands before calling an iterative solver
           110 MiB given to the printing process from OS
            59 MiB allocation reported by mallinfo(arena+hblkhd)
        483700 MiB available memory on the node where the printing process lives
------------------
     ethr =  4.69E-06,  avg # of iterations =  5.5

     total cpu time spent up to now is      185.3 secs

     WARNING: integrated charge=    80.00127985, expected=    80.00000000

     total energy              =    -827.24508285 Ry
     estimated scf accuracy    <       0.05377130 Ry

     total magnetization       =     0.00 Bohr mag/cell
     absolute magnetization    =     0.29 Bohr mag/cell

     iteration # 52     ecut=    60.00 Ry     beta= 0.40
     ParO style diagonalization

---- Real-time Memory Report at c_bands before calling an iterative solver
           111 MiB given to the printing process from OS
            59 MiB allocation reported by mallinfo(arena+hblkhd)
        483699 MiB available memory on the node where the printing process lives
------------------
     ethr =  4.69E-06,  avg # of iterations =  4.9
     Minimization algorithm failed to find Fermi energy: reverting to bisection
     Possible cause: smearing is larger than the electronic band-gap.

     total cpu time spent up to now is      189.3 secs

     WARNING: integrated charge=    80.00182683, expected=    80.00000000

     total energy              =    -827.24558997 Ry
     estimated scf accuracy    <       0.09286367 Ry

     total magnetization       =     0.00 Bohr mag/cell
     absolute magnetization    =     0.40 Bohr mag/cell

     iteration # 53     ecut=    60.00 Ry     beta= 0.40
     ParO style diagonalization

---- Real-time Memory Report at c_bands before calling an iterative solver
           111 MiB given to the printing process from OS
            59 MiB allocation reported by mallinfo(arena+hblkhd)
        483695 MiB available memory on the node where the printing process lives
------------------
     ethr =  4.69E-06,  avg # of iterations =  2.0
     Minimization algorithm failed to find Fermi energy: reverting to bisection
     Possible cause: smearing is larger than the electronic band-gap.

     total cpu time spent up to now is      191.3 secs

     WARNING: integrated charge=    80.00182973, expected=    80.00000000

     total energy              =    -827.24478202 Ry
     estimated scf accuracy    <       0.09213134 Ry

     total magnetization       =     0.00 Bohr mag/cell
     absolute magnetization    =     0.39 Bohr mag/cell

     iteration # 54     ecut=    60.00 Ry     beta= 0.40
     ParO style diagonalization

---- Real-time Memory Report at c_bands before calling an iterative solver
           111 MiB given to the printing process from OS
            59 MiB allocation reported by mallinfo(arena+hblkhd)
        483695 MiB available memory on the node where the printing process lives
------------------
     ethr =  4.69E-06,  avg # of iterations =  2.0
     Minimization algorithm failed to find Fermi energy: reverting to bisection
     Possible cause: smearing is larger than the electronic band-gap.

     total cpu time spent up to now is      193.2 secs

     WARNING: integrated charge=    80.00320068, expected=    80.00000000

     total energy              =    -827.27629124 Ry
     estimated scf accuracy    <       0.09386307 Ry

     total magnetization       =     0.00 Bohr mag/cell
     absolute magnetization    =     0.40 Bohr mag/cell

     iteration # 55     ecut=    60.00 Ry     beta= 0.40
     ParO style diagonalization

---- Real-time Memory Report at c_bands before calling an iterative solver
           111 MiB given to the printing process from OS
            59 MiB allocation reported by mallinfo(arena+hblkhd)
        483694 MiB available memory on the node where the printing process lives
------------------
     ethr =  4.69E-06,  avg # of iterations =  5.3

     total cpu time spent up to now is      197.3 secs

     WARNING: integrated charge=    80.00239325, expected=    80.00000000

     total energy              =    -827.27269458 Ry
     estimated scf accuracy    <       0.04413971 Ry

     total magnetization       =     0.00 Bohr mag/cell
     absolute magnetization    =     0.23 Bohr mag/cell

     iteration # 56     ecut=    60.00 Ry     beta= 0.40
     ParO style diagonalization

---- Real-time Memory Report at c_bands before calling an iterative solver
           111 MiB given to the printing process from OS
            59 MiB allocation reported by mallinfo(arena+hblkhd)
        483694 MiB available memory on the node where the printing process lives
------------------
     ethr =  4.69E-06,  avg # of iterations =  4.2

     total cpu time spent up to now is      200.6 secs

     WARNING: integrated charge=    80.00828264, expected=    80.00000000

     total energy              =    -827.18205686 Ry
     estimated scf accuracy    <       0.04755135 Ry

     total magnetization       =     0.00 Bohr mag/cell
     absolute magnetization    =     0.28 Bohr mag/cell

     iteration # 57     ecut=    60.00 Ry     beta= 0.40
     ParO style diagonalization

---- Real-time Memory Report at c_bands before calling an iterative solver
           111 MiB given to the printing process from OS
            59 MiB allocation reported by mallinfo(arena+hblkhd)
        483694 MiB available memory on the node where the printing process lives
------------------
     ethr =  4.69E-06,  avg # of iterations =  6.3

     total cpu time spent up to now is      205.7 secs

     WARNING: integrated charge=    80.02480742, expected=    80.00000000

     total energy              =    -827.25248512 Ry
     estimated scf accuracy    <       0.20182973 Ry

     total magnetization       =     0.30 Bohr mag/cell
     absolute magnetization    =     0.72 Bohr mag/cell

     iteration # 58     ecut=    60.00 Ry     beta= 0.40
     ParO style diagonalization

---- Real-time Memory Report at c_bands before calling an iterative solver
           111 MiB given to the printing process from OS
            59 MiB allocation reported by mallinfo(arena+hblkhd)
        483694 MiB available memory on the node where the printing process lives
------------------
     ethr =  4.69E-06,  avg # of iterations =  5.6

     total cpu time spent up to now is      210.1 secs

     WARNING: integrated charge=    80.02968807, expected=    80.00000000

     total energy              =    -827.28313527 Ry
     estimated scf accuracy    <       0.02326547 Ry

     total magnetization       =     0.00 Bohr mag/cell
     absolute magnetization    =     0.19 Bohr mag/cell

     iteration # 59     ecut=    60.00 Ry     beta= 0.40
     ParO style diagonalization

---- Real-time Memory Report at c_bands before calling an iterative solver
           111 MiB given to the printing process from OS
            59 MiB allocation reported by mallinfo(arena+hblkhd)
        483693 MiB available memory on the node where the printing process lives
------------------
     ethr =  4.69E-06,  avg # of iterations =  2.3

     total cpu time spent up to now is      212.3 secs

     WARNING: integrated charge=    80.02724458, expected=    80.00000000

     total energy              =    -827.28529498 Ry
     estimated scf accuracy    <       0.01434954 Ry

[...]
     0.0000   0.0000   0.0000   0.0000   0.0000   0.0000   0.0000   0.0000
     0.0000   0.0000   0.0000   0.0000

          k = 0.0000-0.4243 0.5657 (  6763 PWs)   bands (ev):

   -89.1858 -52.6739 -52.6739 -52.6739 -39.7775 -23.0315 -23.0293 -18.2323
   -17.4348 -17.3807 -17.3782 -17.3355 -17.3207  -6.6823  -6.6693  -6.6401
    -6.6253  -6.5639  -6.5409  -1.2145  -1.1029  -0.9029  -0.5648  -0.4709
    -0.2999  -0.1420  -0.0263   0.0401   1.3879   1.4571   1.5198   1.5257
     1.5991   1.7870   2.1819   2.2896   2.3813   5.6002   5.6642   5.7257
     7.8431   8.0874  12.3619  12.5329  12.8784  13.5578  13.7498  13.8795
    14.1919  14.8211  14.9172  15.1084

     occupation numbers 
     1.0000   1.0000   1.0000   1.0000   1.0000   1.0000   1.0000   1.0000
     1.0000   1.0000   1.0000   1.0000   1.0000   1.0000   1.0000   1.0000
     1.0000   1.0000   1.0000   1.0000   1.0000   1.0000   1.0000   1.0000
     1.0000   1.0000   1.0000   1.0000   1.0000   1.0000   1.0000   1.0000
     1.0000   1.0000   1.0000   1.0000   1.0000   1.0000   1.0000   1.0000
     0.0000   0.0000   0.0000   0.0000   0.0000   0.0000   0.0000   0.0000
     0.0000   0.0000   0.0000   0.0000

          k =-0.7071 0.1414 0.0000 (  6776 PWs)   bands (ev):

   -89.1858 -52.6739 -52.6739 -52.6739 -39.7775 -23.0381 -23.0223 -18.2319
   -17.4171 -17.3906 -17.3754 -17.3633 -17.3072  -6.6967  -6.6897  -6.6415
    -6.5825  -6.5653  -6.5247  -1.3010  -1.0101  -0.8181  -0.6984  -0.3388
    -0.2813  -0.1326  -0.1075   0.0444   1.1959   1.4929   1.4940   1.5269
     1.7333   1.7601   2.1456   2.1879   2.4731   5.5387   5.7207   5.7426
     7.7262   8.2081  12.1834  12.6235  13.2850  13.4485  13.6224  13.8634
    14.1196  15.0223  15.1013  15.3945

     occupation numbers 
     1.0000   1.0000   1.0000   1.0000   1.0000   1.0000   1.0000   1.0000
     1.0000   1.0000   1.0000   1.0000   1.0000   1.0000   1.0000   1.0000
     1.0000   1.0000   1.0000   1.0000   1.0000   1.0000   1.0000   1.0000
     1.0000   1.0000   1.0000   1.0000   1.0000   1.0000   1.0000   1.0000
     1.0000   1.0000   1.0000   1.0000   1.0000   1.0000   1.0000   1.0000
     0.0000   0.0000   0.0000   0.0000   0.0000   0.0000   0.0000   0.0000
     0.0000   0.0000   0.0000   0.0000

          k =-0.1414-0.4243 0.7071 (  6753 PWs)   bands (ev):

   -89.1858 -52.6739 -52.6739 -52.6739 -39.7775 -23.0357 -23.0257 -18.2329
   -17.4316 -17.3855 -17.3726 -17.3384 -17.3186  -6.6919  -6.6669  -6.6566
    -6.6099  -6.5614  -6.5523  -1.2253  -1.1090  -0.8877  -0.5851  -0.4413
    -0.2967  -0.1224  -0.0889   0.0655   1.3549   1.4758   1.4802   1.6259
     1.6324   1.7562   2.1835   2.2926   2.3962   5.5981   5.6590   5.7269
     7.8403   8.1049  12.0647  12.7524  12.8903  13.4682  13.6878  13.9499
    14.1504  14.8196  14.9210  15.0977

     occupation numbers 
     1.0000   1.0000   1.0000   1.0000   1.0000   1.0000   1.0000   1.0000
     1.0000   1.0000   1.0000   1.0000   1.0000   1.0000   1.0000   1.0000
     1.0000   1.0000   1.0000   1.0000   1.0000   1.0000   1.0000   1.0000
     1.0000   1.0000   1.0000   1.0000   1.0000   1.0000   1.0000   1.0000
     1.0000   1.0000   1.0000   1.0000   1.0000   1.0000   1.0000   1.0000
     0.0000   0.0000   0.0000   0.0000   0.0000   0.0000   0.0000   0.0000
     0.0000   0.0000   0.0000   0.0000

          k =-0.0707-0.3536 0.6364 (  6756 PWs)   bands (ev):

   -89.1858 -52.6739 -52.6739 -52.6739 -39.7775 -23.0304 -23.0303 -18.2321
   -17.4347 -17.3810 -17.3807 -17.3277 -17.3268  -6.6817  -6.6634  -6.6376
    -6.6342  -6.5561  -6.5435  -1.1795  -1.1479  -0.8863  -0.5333  -0.5200
    -0.2892  -0.1241  -0.0260   0.0228   1.3847   1.4477   1.5214   1.5368
     1.6299   1.7415   2.1634   2.3381   2.3447   5.6269   5.6320   5.7343
     7.8452   8.0813  12.3967  12.5878  12.8279  13.5709  13.8076  13.8237
    14.1756  14.8404  14.9848  14.9930

     occupation numbers 
     1.0000   1.0000   1.0000   1.0000   1.0000   1.0000   1.0000   1.0000
     1.0000   1.0000   1.0000   1.0000   1.0000   1.0000   1.0000   1.0000
     1.0000   1.0000   1.0000   1.0000   1.0000   1.0000   1.0000   1.0000
     1.0000   1.0000   1.0000   1.0000   1.0000   1.0000   1.0000   1.0000
     1.0000   1.0000   1.0000   1.0000   1.0000   1.0000   1.0000   1.0000
     0.0000   0.0000   0.0000   0.0000   0.0000   0.0000   0.0000   0.0000
     0.0000   0.0000   0.0000   0.0000

          k =-0.7071 0.2828 0.0000 (  6770 PWs)   bands (ev):

   -89.1858 -52.6739 -52.6739 -52.6739 -39.7775 -23.0332 -23.0271 -18.2316
   -17.4319 -17.3859 -17.3801 -17.3374 -17.3183  -6.6843  -6.6572  -6.6540
    -6.6162  -6.5557  -6.5345  -1.2195  -1.1037  -0.8631  -0.6027  -0.4680
    -0.2801  -0.0791  -0.0455  -0.0113   1.3378   1.4461   1.5258   1.5653
     1.6219   1.7216   2.1442   2.2865   2.3943   5.5944   5.6638   5.7425
     7.8090   8.1114  12.4680  12.6006  12.8663  13.6374  13.6650  13.8752
    14.1491  14.9238  14.9897  15.0547

     occupation numbers 
     1.0000   1.0000   1.0000   1.0000   1.0000   1.0000   1.0000   1.0000
     1.0000   1.0000   1.0000   1.0000   1.0000   1.0000   1.0000   1.0000
     1.0000   1.0000   1.0000   1.0000   1.0000   1.0000   1.0000   1.0000
     1.0000   1.0000   1.0000   1.0000   1.0000   1.0000   1.0000   1.0000
     1.0000   1.0000   1.0000   1.0000   1.0000   1.0000   1.0000   1.0000
     0.0000   0.0000   0.0000   0.0000   0.0000   0.0000   0.0000   0.0000
     0.0000   0.0000   0.0000   0.0000

     the Fermi energy is     6.9509 ev

!    total energy              =    -827.28948486 Ry
     estimated scf accuracy    <          1.0E-09 Ry
     smearing contrib. (-TS)   =       0.00000001 Ry
     internal energy E=F+TS    =    -827.28948487 Ry

     The total energy is F=E-TS. E is the sum of the following terms:
     one-electron contribution =    -546.81924869 Ry
     hartree contribution      =     311.83836024 Ry
     xc contribution           =    -113.74618082 Ry
     ewald contribution        =    -370.76395564 Ry
     one-center paw contrib.   =    -107.79845996 Ry
      -> PAW hartree energy AE =      37.27284017 Ry
      -> PAW hartree energy PS =     -37.05926606 Ry
      -> PAW xc energy AE      =     -64.55434930 Ry
      -> PAW xc energy PS      =      10.44154521 Ry
      -> total E_H with PAW    =     312.05193435 Ry
      -> total E_XC with PAW   =    -167.85898491 Ry

     total magnetization       =     0.00 Bohr mag/cell
     absolute magnetization    =     0.00 Bohr mag/cell

     convergence has been achieved in  67 iterations

     Forces acting on atoms (cartesian axes, Ry/au):

     atom    1 type  3   force =     0.00000000    0.00000000   -0.00000000
     atom    2 type  3   force =     0.00000000    0.00000000   -0.00000000
     atom    3 type  4   force =    -0.00000000   -0.00000000    0.00000000
     atom    4 type  1   force =    -0.00000000   -0.00000000    0.00000000
     atom    5 type  2   force =    -0.13311661   -0.00000000    0.00000000
     atom    6 type  2   force =    -0.00000000   -0.13311661    0.00000000
     atom    7 type  2   force =     0.00000000   -0.00000000   -0.13311661
     atom    8 type  2   force =     0.00000000   -0.00000000    0.13311661
     atom    9 type  2   force =    -0.00000000    0.13311661    0.00000000
     atom   10 type  2   force =     0.13311661    0.00000000   -0.00000000
     The non-local contrib.  to forces
     atom    1 type  3   force =    -0.00000000    0.00000000   -0.00000000
     atom    2 type  3   force =    -0.00000000   -0.00000000    0.00000000
     atom    3 type  4   force =     0.00000000   -0.00000000    0.00000000
     atom    4 type  1   force =    -0.00000000    0.00000000    0.00000000
     atom    5 type  2   force =     0.72660898   -0.00000000    0.00000000
     atom    6 type  2   force =    -0.00000000    0.72660898    0.00000000
     atom    7 type  2   force =     0.00000000   -0.00000000    0.72660898
     atom    8 type  2   force =    -0.00000000    0.00000000   -0.72660898
     atom    9 type  2   force =     0.00000000   -0.72660898   -0.00000000
     atom   10 type  2   force =    -0.72660898    0.00000000   -0.00000000
     The ionic contribution  to forces
     atom    1 type  3   force =    -0.00000000    0.00000000    0.00000000
     atom    2 type  3   force =     0.00000000    0.00000000   -0.00000000
     atom    3 type  4   force =     0.00000000   -0.00000000    0.00000000
     atom    4 type  1   force =     0.00000000   -0.00000000    0.00000000
     atom    5 type  2   force =   -22.85776051   -0.00000000    0.00000000
     atom    6 type  2   force =     0.00000000  -22.85776051   -0.00000000
     atom    7 type  2   force =    -0.00000000    0.00000000  -22.85776051
     atom    8 type  2   force =     0.00000000    0.00000000   22.85776051
     atom    9 type  2   force =     0.00000000   22.85776051    0.00000000
     atom   10 type  2   force =    22.85776051   -0.00000000   -0.00000000
     The local contribution  to forces
     atom    1 type  3   force =     0.00000000   -0.00000000   -0.00000000
     atom    2 type  3   force =    -0.00000000    0.00000000   -0.00000000
     atom    3 type  4   force =    -0.00000000    0.00000000    0.00000000
     atom    4 type  1   force =    -0.00000000    0.00000000    0.00000000
     atom    5 type  2   force =    21.99803210    0.00000000    0.00000000
     atom    6 type  2   force =    -0.00000000   21.99803210    0.00000000
     atom    7 type  2   force =     0.00000000   -0.00000000   21.99803210
     atom    8 type  2   force =    -0.00000000   -0.00000000  -21.99803210
     atom    9 type  2   force =    -0.00000000  -21.99803210   -0.00000000
     atom   10 type  2   force =   -21.99803210   -0.00000000   -0.00000000
     The core correction contribution to forces
     atom    1 type  3   force =     0.00000000    0.00000000   -0.00000000
     atom    2 type  3   force =    -0.00000000   -0.00000000    0.00000000
     atom    3 type  4   force =     0.00000000    0.00000000    0.00000000
     atom    4 type  1   force =    -0.00000000   -0.00000000    0.00000000
     atom    5 type  2   force =     0.00000000    0.00000000    0.00000000
     atom    6 type  2   force =     0.00000000    0.00000000    0.00000000
     atom    7 type  2   force =     0.00000000    0.00000000    0.00000000
     atom    8 type  2   force =     0.00000000    0.00000000    0.00000000
     atom    9 type  2   force =     0.00000000    0.00000000    0.00000000
     atom   10 type  2   force =     0.00000000    0.00000000    0.00000000
     The Hubbard contrib.    to forces
     atom    1 type  3   force =     0.00000000    0.00000000    0.00000000
     atom    2 type  3   force =     0.00000000    0.00000000    0.00000000
     atom    3 type  4   force =     0.00000000    0.00000000    0.00000000
     atom    4 type  1   force =     0.00000000    0.00000000    0.00000000
     atom    5 type  2   force =     0.00000000    0.00000000    0.00000000
     atom    6 type  2   force =     0.00000000    0.00000000    0.00000000
     atom    7 type  2   force =     0.00000000    0.00000000    0.00000000
     atom    8 type  2   force =     0.00000000    0.00000000    0.00000000
     atom    9 type  2   force =     0.00000000    0.00000000    0.00000000
     atom   10 type  2   force =     0.00000000    0.00000000    0.00000000
     The SCF correction term to forces
     atom    1 type  3   force =    -0.00000000   -0.00000000    0.00000000
     atom    2 type  3   force =     0.00000000    0.00000000   -0.00000000
     atom    3 type  4   force =     0.00000000    0.00000000   -0.00000000
     atom    4 type  1   force =    -0.00000000   -0.00000000    0.00000000
     atom    5 type  2   force =     0.00000283   -0.00000000   -0.00000000
     atom    6 type  2   force =    -0.00000000    0.00000283   -0.00000000
     atom    7 type  2   force =     0.00000000    0.00000000    0.00000283
     atom    8 type  2   force =    -0.00000000   -0.00000000   -0.00000283
     atom    9 type  2   force =    -0.00000000   -0.00000283    0.00000000
     atom   10 type  2   force =    -0.00000283    0.00000000    0.00000000

     Total force =     0.326068     Total SCF correction =     0.000007


     Computing stress (Cartesian axis) and pressure

          total   stress  (Ry/bohr**3)                   (kbar)     P=       98.12
   0.00066702   0.00000000   0.00000000           98.12        0.00        0.00
   0.00000000   0.00066702   0.00000000            0.00       98.12        0.00
   0.00000000   0.00000000   0.00066702            0.00        0.00       98.12

     kinetic stress (kbar)  22563.05     -0.00      0.00
                               -0.00  22563.05      0.00
                                0.00      0.00  22563.05

     local   stress (kbar) -18225.48      0.00      0.00
                                0.00 -18225.48     -0.00
                                0.00     -0.00 -18225.48

     nonloc. stress (kbar)   5113.02     -0.00      0.00
                               -0.00   5113.02     -0.00
                                0.00     -0.00   5113.02

     hartree stress (kbar)  17735.52     -0.00      0.00
                               -0.00  17735.52      0.00
                                0.00      0.00  17735.52

     exc-cor stress (kbar)  -4697.40     -0.00     -0.00
                               -0.00  -4697.40      0.00
                               -0.00      0.00  -4697.40

     corecor stress (kbar)  -1303.73     -0.00     -0.00
                               -0.00  -1303.73     -0.00
                               -0.00     -0.00  -1303.73

     ewald   stress (kbar) -21086.86      0.00      0.00
                                0.00 -21086.86      0.00
                                0.00      0.00 -21086.86

     hubbard stress (kbar)      0.00      0.00      0.00
                                0.00      0.00      0.00
                                0.00      0.00      0.00

     DFT-D   stress (kbar)      0.00      0.00      0.00
                                0.00      0.00      0.00
                                0.00      0.00      0.00

     XDM     stress (kbar)      0.00      0.00      0.00
                                0.00      0.00      0.00
                                0.00      0.00      0.00

     dft-nl  stress (kbar)      0.00      0.00      0.00
                                0.00      0.00      0.00
                                0.00      0.00      0.00

     TS-vdW  stress (kbar)      0.00      0.00      0.00
                                0.00      0.00      0.00
                                0.00      0.00      0.00

     MDB     stress (kbar)      0.00      0.00      0.00
                                0.00      0.00      0.00
                                0.00      0.00      0.00

     3D-RISM stress (kbar)      0.00      0.00      0.00
                                0.00      0.00      0.00
                                0.00      0.00      0.00


     Writing all to output data dir ./out/aiida.save/ :
     XML data file, charge density, pseudopotentials, collected wavefunctions

     init_run     :      1.52s CPU      1.70s WALL (       1 calls)
     electrons    :    228.75s CPU    235.48s WALL (       1 calls)
     forces       :      0.28s CPU      0.29s WALL (       1 calls)
     stress       :      2.00s CPU      2.01s WALL (       1 calls)

     Called by init_run:
     wfcinit      :      0.56s CPU      0.58s WALL (       1 calls)
     wfcinit:atom :      0.01s CPU      0.01s WALL (      14 calls)
     wfcinit:wfcr :      0.50s CPU      0.52s WALL (      14 calls)
     potinit      :      0.38s CPU      0.51s WALL (       1 calls)
     hinit0       :      0.30s CPU      0.32s WALL (       1 calls)

     Called by electrons:
     c_bands      :    197.67s CPU    202.36s WALL (      67 calls)
     sum_band     :     17.23s CPU     17.70s WALL (      67 calls)
     v_of_rho     :      4.61s CPU      4.85s WALL (      68 calls)
     v_h          :      0.17s CPU      0.17s WALL (      68 calls)
     v_xc         :      4.57s CPU      4.81s WALL (      70 calls)
     newd         :      1.71s CPU      1.96s WALL (      68 calls)
     PAW_pot      :      6.15s CPU      7.11s WALL (      68 calls)
     mix_rho      :      0.64s CPU      0.66s WALL (      67 calls)

     Called by c_bands:
     init_us_2    :      1.80s CPU      1.85s WALL (    1918 calls)
     init_us_2:cp :      1.80s CPU      1.85s WALL (    1918 calls)
     paro_k       :    171.31s CPU    175.44s WALL (     938 calls)

     Called by sum_band:
     sum_band:wei :      0.10s CPU      0.11s WALL (      67 calls)
     sum_band:loo :     13.39s CPU     13.73s WALL (      67 calls)
     sum_band:buf :      0.25s CPU      0.25s WALL (     938 calls)
     sum_band:ini :      0.55s CPU      0.56s WALL (     938 calls)
     sum_band:cal :      1.52s CPU      1.54s WALL (     938 calls)
     sum_band:bec :      0.04s CPU      0.04s WALL (     938 calls)
     addusdens    :      2.69s CPU      2.72s WALL (      67 calls)
                                        0.00s GPU  (      67 calls)
     addusd:skk   :      0.01s CPU      0.01s WALL (     268 calls)
                                        0.00s GPU  (     268 calls)

     Called by paro_*:
     paro:init    :     26.15s CPU     26.75s WALL (     938 calls)
     paro:pack    :      1.06s CPU      1.07s WALL (    2995 calls)
     paro:mp_bar  :      0.00s CPU      0.01s WALL (    2995 calls)
     paro:mp_sum  :      1.08s CPU      1.11s WALL (    2995 calls)
     pcg          :    105.07s CPU    108.10s WALL (    2995 calls)
     pcg:hs_1psi  :     85.96s CPU     88.13s WALL (   10561 calls)
     pcg:ortho    :     10.26s CPU     10.55s WALL (   13556 calls)
     pcg:move1    :      0.59s CPU      0.61s WALL (   10561 calls)
     pcg:move2    :      0.28s CPU      0.29s WALL (    8963 calls)
     rotHSw       :     37.60s CPU     38.06s WALL (    3933 calls)
     rotHSw:hc    :     10.92s CPU     11.20s WALL (    3933 calls)
     rotHSw:diag  :     10.67s CPU     10.73s WALL (    3933 calls)
     rotHSw:evc   :     15.98s CPU     16.09s WALL (    3933 calls)
     rotHSw:hc:s1 :      0.56s CPU      0.64s WALL (    3933 calls)
     rotHSw:hc:s2 :      0.02s CPU      0.02s WALL (    3933 calls)
     rotHSw:hc:s3 :      0.46s CPU      0.55s WALL (    3933 calls)
     rotHSw:hc:s4 :      0.02s CPU      0.02s WALL (    3933 calls)
     rotHSw:ev:s5 :      0.01s CPU      0.01s WALL (    3933 calls)
     rotHSw:ev:s6 :      0.01s CPU      0.01s WALL (    3933 calls)
     rotHSw:ev:s7 :      0.01s CPU      0.01s WALL (    3933 calls)
     h_psi        :    105.19s CPU    107.86s WALL (   11513 calls)
     s_psi        :      6.37s CPU      6.45s WALL (   11513 calls)
     g_psi        :      0.74s CPU      0.87s WALL (  215042 calls)

     Called by h_psi:
     h_psi:calbec :     11.34s CPU     11.56s WALL (   11513 calls)
     vloc_psi     :     86.30s CPU     88.62s WALL (   11513 calls)
     add_vuspsi   :      6.76s CPU      6.86s WALL (   11513 calls)

     General routines
     calbec       :     12.94s CPU     13.18s WALL (   12521 calls)
     fft          :      1.88s CPU      2.09s WALL (    1738 calls)
     ffts         :      0.35s CPU      0.37s WALL (     270 calls)
     fftw         :     78.78s CPU     80.67s WALL (  439052 calls)
     interpolate  :      0.43s CPU      0.45s WALL (     136 calls)

     Parallel routines

     PAW routines
     PAW_pot      :      6.15s CPU      7.11s WALL (      68 calls)
     PAW_symme    :      0.09s CPU      0.09s WALL (     134 calls)

     PWSCF        :   3m52.96s CPU   4m 0.68s WALL


   This run was terminated on:   4:29:41  30Nov2023            

=------------------------------------------------------------------------------=
   JOB DONE.
=------------------------------------------------------------------------------=
