
     Program PWSCF v.7.2 starts on 22Oct2023 at 18: 2:53 

     This program is part of the open-source Quantum ESPRESSO suite
     for quantum simulation of materials; please cite
         "P. Giannozzi et al., J. Phys.:Condens. Matter 21 395502 (2009);
         "P. Giannozzi et al., J. Phys.:Condens. Matter 29 465901 (2017);
         "P. Giannozzi et al., J. Chem. Phys. 152 154105 (2020);
          URL http://www.quantum-espresso.org", 
     in publications or presentations arising from this work. More details at
     http://www.quantum-espresso.org/quote

     Parallel version (MPI & OpenMP), running on      12 processor cores
     Number of MPI processes:                 1
     Threads/MPI process:                    12

     MPI processes distributed on     1 nodes
     60503 MiB available memory on the printing compute node when the environment starts
 
     Reading input from aiida.in

     Current dimensions of program PWSCF are:
     Max number of different atomic species (ntypx) = 10
     Max number of k-points (npk) =  40000
     Max angular momentum in pseudopotentials (lmaxx) =  4
     file K.pbesol-spn-kjpaw_psl.1.0.0.UPF: wavefunction(s)  3S renormalized
     Message from routine setup:
     using ibrav=0 with symmetry is DISCOURAGED, use correct ibrav instead
 
     Subspace diagonalization in iterative solution of the eigenvalue problem:
     a serial algorithm will be used

 
     G-vector sticks info
     --------------------
     sticks:   dense  smooth     PW     G-vecs:    dense   smooth      PW
     Sum        4507    2245    649               199705    70721   10657
 
     Using Slab Decomposition
 


     bravais-lattice index     =            0
     lattice parameter (alat)  =      11.6707  a.u.
     unit-cell volume          =    1124.0255 (a.u.)^3
     number of atoms/cell      =           10
     number of atomic types    =            4
     number of electrons       =        87.00
     number of Kohn-Sham states=           53
     kinetic-energy cutoff     =      60.0000  Ry
     charge density cutoff     =     480.0000  Ry
     scf convergence threshold =      2.0E-09
     mixing beta               =       0.4000
     number of iterations used =            8  plain     mixing
     Exchange-correlation= PBESOL
                           (   1   4  10   8   0   0   0)

     GPU acceleration is ACTIVE.


     GPU used by master process:

        Device Number: 0
        Device name: Tesla P100-PCIE-16GB
        Compute capability : 60
        Ratio of single to double precision performance  : 2
        Memory Clock Rate (KHz): 715000
        Memory Bus Width (bits): 4096
        Peak Memory Bandwidth (GB/s): 732.16

     celldm(1)=  11.670704  celldm(2)=   0.000000  celldm(3)=   0.000000
     celldm(4)=   0.000000  celldm(5)=   0.000000  celldm(6)=   0.000000

     crystal axes: (cart. coord. in units of alat)
               a(1) = (   0.000000   0.707107   0.707107 )  
               a(2) = (   0.707107   0.000000   0.707107 )  
               a(3) = (   0.707107   0.707107   0.000000 )  

     reciprocal axes: (cart. coord. in units 2 pi/alat)
               b(1) = ( -0.707107  0.707107  0.707107 )  
               b(2) = (  0.707107 -0.707107  0.707107 )  
               b(3) = (  0.707107  0.707107 -0.707107 )  


     PseudoPot. # 1 for F  read from file:
     ./pseudo/f_pbesol_v1.4.uspp.F.UPF
     MD5 check sum: d2815ecb49b17b99c5724ffd2f9bbd8d
     Pseudo is Ultrasoft, Zval =  7.0
     Generated by new atomic code, or converted to UPF format
     Using radial grid of  799 points,  4 beta functions with: 
                l(1) =   0
                l(2) =   0
                l(3) =   1
                l(4) =   1
     Q(r) pseudized with  8 coefficients,  rinner =    0.950   0.950   0.950


     PseudoPot. # 2 for K  read from file:
     ./pseudo/K.pbesol-spn-kjpaw_psl.1.0.0.UPF
     MD5 check sum: b302bede38c4f5fe00638ceae66f121b
     Pseudo is Projector augmented-wave + core cor, Zval =  9.0
     Generated using "atomic" code by A. Dal Corso  v.6.0 svn rev. 13079
     Shape of augmentation charge: PSQ
     Using radial grid of 1165 points,  6 beta functions with: 
                l(1) =   0
                l(2) =   0
                l(3) =   1
                l(4) =   1
                l(5) =   2
                l(6) =   2
     Q(r) pseudized with 0 coefficients 


     PseudoPot. # 3 for Ni read from file:
     ./pseudo/ni_pbesol_v1.4.uspp.F.UPF
     MD5 check sum: de937c0c8ae4b350e69c02b76d8a83cb
     Pseudo is Ultrasoft + core correction, Zval = 18.0
     Generated by new atomic code, or converted to UPF format
     Using radial grid of  865 points,  6 beta functions with: 
                l(1) =   0
                l(2) =   0
                l(3) =   1
                l(4) =   1
                l(5) =   2
                l(6) =   2
     Q(r) pseudized with 10 coefficients,  rinner =    0.980   0.980   0.980
                                                       0.980   0.980

     PseudoPot. # 4 for Rb read from file:
     ./pseudo/Rb_ONCV_PBEsol-1.0.upf
     MD5 check sum: 84df3c5f64297d00eda9a2a6a50301db
     Pseudo is Norm-conserving, Zval =  9.0
     Generated using ONCVPSP code by D. R. Hamann
     Using radial grid of 2280 points,  6 beta functions with: 
                l(1) =   0
                l(2) =   0
                l(3) =   1
                l(4) =   1
                l(5) =   2
                l(6) =   2

     atomic species   valence    mass     pseudopotential
        F              7.00    18.99840     F ( 1.00)
        K              9.00    39.09830     K ( 1.00)
        Ni            18.00    58.69340     Ni( 1.00)
        Rb             9.00    85.46780     Rb( 1.00)

     Starting magnetic structure 
     atomic species   magnetization
        F            0.100
        K            0.100
        Ni           0.278
        Rb           0.100

     48 Sym. Ops., with inversion, found


                                    s                        frac. trans.

      isym =  1     identity                                     

 cryst.   s( 1) = (     1          0          0      )
                  (     0          1          0      )
                  (     0          0          1      )

 cart.    s( 1) = (  1.0000000 -0.0000000  0.0000000 )
                  ( -0.0000000  1.0000000  0.0000000 )
                  ( -0.0000000  0.0000000  1.0000000 )


      isym =  2     180 deg rotation - cart. axis [0,0,1]        

 cryst.   s( 2) = (     0          1         -1      )
                  (     1          0         -1      )
                  (     0          0         -1      )

 cart.    s( 2) = ( -1.0000000  0.0000000  0.0000000 )
                  (  0.0000000 -1.0000000  0.0000000 )
                  (  0.0000000 -0.0000000  1.0000000 )


      isym =  3     180 deg rotation - cart. axis [0,1,0]        

 cryst.   s( 3) = (     0         -1          1      )
                  (     0         -1          0      )
                  (     1         -1          0      )

 cart.    s( 3) = ( -1.0000000 -0.0000000 -0.0000000 )
                  (  0.0000000  1.0000000 -0.0000000 )
                  (  0.0000000  0.0000000 -1.0000000 )


      isym =  4     180 deg rotation - cart. axis [1,0,0]        

 cryst.   s( 4) = (    -1          0          0      )
                  (    -1          0          1      )
                  (    -1          1          0      )

 cart.    s( 4) = (  1.0000000  0.0000000 -0.0000000 )
                  ( -0.0000000 -1.0000000 -0.0000000 )
                  ( -0.0000000 -0.0000000 -1.0000000 )


      isym =  5     180 deg rotation - cart. axis [1,1,0]        

 cryst.   s( 5) = (    -1          0          1      )
                  (     0         -1          1      )
                  (     0          0          1      )

 cart.    s( 5) = ( -0.0000000  1.0000000 -0.0000000 )
                  (  1.0000000 -0.0000000 -0.0000000 )
                  (  0.0000000 -0.0000000 -1.0000000 )


      isym =  6     180 deg rotation - cart. axis [1,-1,0]       

 cryst.   s( 6) = (     0         -1          0      )
                  (    -1          0          0      )
                  (     0          0         -1      )

 cart.    s( 6) = (  0.0000000 -1.0000000 -0.0000000 )
                  ( -1.0000000  0.0000000 -0.0000000 )
                  ( -0.0000000  0.0000000 -1.0000000 )


      isym =  7      90 deg rotation - cart. axis [0,0,-1]       

 cryst.   s( 7) = (     0          1          0      )
                  (     0          1         -1      )
                  (    -1          1          0      )

 cart.    s( 7) = (  0.0000000  1.0000000  0.0000000 )
                  ( -1.0000000 -0.0000000  0.0000000 )
                  ( -0.0000000 -0.0000000  1.0000000 )


      isym =  8      90 deg rotation - cart. axis [0,0,1]        

 cryst.   s( 8) = (     1          0         -1      )
                  (     1          0          0      )
                  (     1         -1          0      )

 cart.    s( 8) = ( -0.0000000 -1.0000000  0.0000000 )
                  (  1.0000000  0.0000000  0.0000000 )
                  (  0.0000000  0.0000000  1.0000000 )


      isym =  9     180 deg rotation - cart. axis [1,0,1]        

 cryst.   s( 9) = (    -1          1          0      )
                  (     0          1          0      )
                  (     0          1         -1      )

 cart.    s( 9) = (  0.0000000  0.0000000  1.0000000 )
                  (  0.0000000 -1.0000000 -0.0000000 )
                  (  1.0000000 -0.0000000 -0.0000000 )


      isym = 10     180 deg rotation - cart. axis [-1,0,1]       

 cryst.   s(10) = (     0          0         -1      )
                  (     0         -1          0      )
                  (    -1          0          0      )

 cart.    s(10) = ( -0.0000000  0.0000000 -1.0000000 )
                  ( -0.0000000 -1.0000000  0.0000000 )
                  ( -1.0000000 -0.0000000  0.0000000 )


      isym = 11      90 deg rotation - cart. axis [0,1,0]        

 cryst.   s(11) = (     0          0          1      )
                  (    -1          0          1      )
                  (     0         -1          1      )

 cart.    s(11) = ( -0.0000000 -0.0000000  1.0000000 )
                  ( -0.0000000  1.0000000 -0.0000000 )
                  ( -1.0000000  0.0000000 -0.0000000 )


      isym = 12      90 deg rotation - cart. axis [0,-1,0]       

 cryst.   s(12) = (     1         -1          0      )
                  (     1          0         -1      )
                  (     1          0          0      )

 cart.    s(12) = (  0.0000000 -0.0000000 -1.0000000 )
                  (  0.0000000  1.0000000  0.0000000 )
                  (  1.0000000  0.0000000  0.0000000 )


      isym = 13     180 deg rotation - cart. axis [0,1,1]        

 cryst.   s(13) = (     1          0          0      )
                  (     1         -1          0      )
                  (     1          0         -1      )

 cart.    s(13) = ( -1.0000000  0.0000000 -0.0000000 )
                  (  0.0000000  0.0000000  1.0000000 )
                  (  0.0000000  1.0000000  0.0000000 )


      isym = 14     180 deg rotation - cart. axis [0,1,-1]       

 cryst.   s(14) = (    -1          0          0      )
                  (     0          0         -1      )
                  (     0         -1          0      )

 cart.    s(14) = ( -1.0000000 -0.0000000  0.0000000 )
                  (  0.0000000 -0.0000000 -1.0000000 )
                  (  0.0000000 -1.0000000 -0.0000000 )


      isym = 15      90 deg rotation - cart. axis [-1,0,0]       

 cryst.   s(15) = (     0         -1          1      )
                  (     0          0          1      )
                  (    -1          0          1      )

 cart.    s(15) = (  1.0000000 -0.0000000 -0.0000000 )
                  ( -0.0000000 -0.0000000  1.0000000 )
                  ( -0.0000000 -1.0000000  0.0000000 )


      isym = 16      90 deg rotation - cart. axis [1,0,0]        

 cryst.   s(16) = (     0          1         -1      )
                  (    -1          1          0      )
                  (     0          1          0      )

 cart.    s(16) = (  1.0000000  0.0000000  0.0000000 )
                  ( -0.0000000  0.0000000 -1.0000000 )
                  ( -0.0000000  1.0000000 -0.0000000 )


      isym = 17     120 deg rotation - cart. axis [-1,-1,-1]     

 cryst.   s(17) = (     0          0          1      )
                  (     1          0          0      )
                  (     0          1          0      )

 cart.    s(17) = (  0.0000000  1.0000000 -0.0000000 )
                  (  0.0000000 -0.0000000  1.0000000 )
                  (  1.0000000 -0.0000000  0.0000000 )


      isym = 18     120 deg rotation - cart. axis [-1,1,1]       

 cryst.   s(18) = (     1         -1          0      )
                  (     0         -1          1      )
                  (     0         -1          0      )

 cart.    s(18) = ( -0.0000000 -1.0000000 -0.0000000 )
                  ( -0.0000000  0.0000000  1.0000000 )
                  ( -1.0000000  0.0000000  0.0000000 )


      isym = 19     120 deg rotation - cart. axis [1,1,-1]       

 cryst.   s(19) = (    -1          1          0      )
                  (    -1          0          0      )
                  (    -1          0          1      )

 cart.    s(19) = ( -0.0000000  1.0000000  0.0000000 )
                  ( -0.0000000 -0.0000000 -1.0000000 )
                  ( -1.0000000 -0.0000000 -0.0000000 )


      isym = 20     120 deg rotation - cart. axis [1,-1,1]       

 cryst.   s(20) = (     0          0         -1      )
                  (     0          1         -1      )
                  (     1          0         -1      )

 cart.    s(20) = (  0.0000000 -1.0000000  0.0000000 )
                  (  0.0000000  0.0000000 -1.0000000 )
                  (  1.0000000  0.0000000 -0.0000000 )


      isym = 21     120 deg rotation - cart. axis [1,1,1]        

 cryst.   s(21) = (     0          1          0      )
                  (     0          0          1      )
                  (     1          0          0      )

 cart.    s(21) = ( -0.0000000  0.0000000  1.0000000 )
                  (  1.0000000  0.0000000 -0.0000000 )
                  (  0.0000000  1.0000000 -0.0000000 )


      isym = 22     120 deg rotation - cart. axis [-1,1,-1]      

 cryst.   s(22) = (    -1          0          1      )
                  (    -1          1          0      )
                  (    -1          0          0      )

 cart.    s(22) = (  0.0000000 -0.0000000  1.0000000 )
                  ( -1.0000000 -0.0000000 -0.0000000 )
                  ( -0.0000000 -1.0000000 -0.0000000 )


      isym = 23     120 deg rotation - cart. axis [1,-1,-1]      

 cryst.   s(23) = (     1          0         -1      )
                  (     0          0         -1      )
                  (     0          1         -1      )

 cart.    s(23) = (  0.0000000  0.0000000 -1.0000000 )
                  ( -1.0000000  0.0000000  0.0000000 )
                  ( -0.0000000  1.0000000  0.0000000 )


      isym = 24     120 deg rotation - cart. axis [-1,-1,1]      

 cryst.   s(24) = (     0         -1          0      )
                  (     1         -1          0      )
                  (     0         -1          1      )

 cart.    s(24) = ( -0.0000000 -0.0000000 -1.0000000 )
                  (  1.0000000 -0.0000000  0.0000000 )
                  (  0.0000000 -1.0000000  0.0000000 )


      isym = 25     inversion                                    

 cryst.   s(25) = (    -1          0          0      )
                  (     0         -1          0      )
                  (     0          0         -1      )

 cart.    s(25) = ( -1.0000000  0.0000000 -0.0000000 )
                  (  0.0000000 -1.0000000 -0.0000000 )
                  (  0.0000000 -0.0000000 -1.0000000 )


      isym = 26     inv. 180 deg rotation - cart. axis [0,0,1]   

 cryst.   s(26) = (     0         -1          1      )
                  (    -1          0          1      )
                  (     0          0          1      )

 cart.    s(26) = (  1.0000000 -0.0000000 -0.0000000 )
                  ( -0.0000000  1.0000000 -0.0000000 )
                  ( -0.0000000  0.0000000 -1.0000000 )


      isym = 27     inv. 180 deg rotation - cart. axis [0,1,0]   

 cryst.   s(27) = (     0          1         -1      )
                  (     0          1          0      )
                  (    -1          1          0      )

 cart.    s(27) = (  1.0000000  0.0000000  0.0000000 )
                  ( -0.0000000 -1.0000000  0.0000000 )
                  ( -0.0000000 -0.0000000  1.0000000 )


      isym = 28     inv. 180 deg rotation - cart. axis [1,0,0]   

 cryst.   s(28) = (     1          0          0      )
                  (     1          0         -1      )
                  (     1         -1          0      )

 cart.    s(28) = ( -1.0000000 -0.0000000  0.0000000 )
                  (  0.0000000  1.0000000  0.0000000 )
                  (  0.0000000  0.0000000  1.0000000 )


      isym = 29     inv. 180 deg rotation - cart. axis [1,1,0]   

 cryst.   s(29) = (     1          0         -1      )
                  (     0          1         -1      )
                  (     0          0         -1      )

 cart.    s(29) = (  0.0000000 -1.0000000  0.0000000 )
                  ( -1.0000000  0.0000000  0.0000000 )
                  ( -0.0000000  0.0000000  1.0000000 )


      isym = 30     inv. 180 deg rotation - cart. axis [1,-1,0]  

 cryst.   s(30) = (     0          1          0      )
                  (     1          0          0      )
                  (     0          0          1      )

 cart.    s(30) = ( -0.0000000  1.0000000  0.0000000 )
                  (  1.0000000 -0.0000000  0.0000000 )
                  (  0.0000000 -0.0000000  1.0000000 )


      isym = 31     inv.  90 deg rotation - cart. axis [0,0,-1]  

 cryst.   s(31) = (     0         -1          0      )
                  (     0         -1          1      )
                  (     1         -1          0      )

 cart.    s(31) = ( -0.0000000 -1.0000000 -0.0000000 )
                  (  1.0000000  0.0000000 -0.0000000 )
                  (  0.0000000  0.0000000 -1.0000000 )


      isym = 32     inv.  90 deg rotation - cart. axis [0,0,1]   

 cryst.   s(32) = (    -1          0          1      )
                  (    -1          0          0      )
                  (    -1          1          0      )

 cart.    s(32) = (  0.0000000  1.0000000 -0.0000000 )
                  ( -1.0000000 -0.0000000 -0.0000000 )
                  ( -0.0000000 -0.0000000 -1.0000000 )


      isym = 33     inv. 180 deg rotation - cart. axis [1,0,1]   

 cryst.   s(33) = (     1         -1          0      )
                  (     0         -1          0      )
                  (     0         -1          1      )

 cart.    s(33) = ( -0.0000000 -0.0000000 -1.0000000 )
                  ( -0.0000000  1.0000000  0.0000000 )
                  ( -1.0000000  0.0000000  0.0000000 )


      isym = 34     inv. 180 deg rotation - cart. axis [-1,0,1]  

 cryst.   s(34) = (     0          0          1      )
                  (     0          1          0      )
                  (     1          0          0      )

 cart.    s(34) = (  0.0000000 -0.0000000  1.0000000 )
                  (  0.0000000  1.0000000 -0.0000000 )
                  (  1.0000000  0.0000000 -0.0000000 )


      isym = 35     inv.  90 deg rotation - cart. axis [0,1,0]   

 cryst.   s(35) = (     0          0         -1      )
                  (     1          0         -1      )
                  (     0          1         -1      )

 cart.    s(35) = (  0.0000000  0.0000000 -1.0000000 )
                  (  0.0000000 -1.0000000  0.0000000 )
                  (  1.0000000 -0.0000000  0.0000000 )


      isym = 36     inv.  90 deg rotation - cart. axis [0,-1,0]  

 cryst.   s(36) = (    -1          1          0      )
                  (    -1          0          1      )
                  (    -1          0          0      )

 cart.    s(36) = ( -0.0000000  0.0000000  1.0000000 )
                  ( -0.0000000 -1.0000000 -0.0000000 )
                  ( -1.0000000 -0.0000000 -0.0000000 )


      isym = 37     inv. 180 deg rotation - cart. axis [0,1,1]   

 cryst.   s(37) = (    -1          0          0      )
                  (    -1          1          0      )
                  (    -1          0          1      )

 cart.    s(37) = (  1.0000000 -0.0000000  0.0000000 )
                  ( -0.0000000 -0.0000000 -1.0000000 )
                  ( -0.0000000 -1.0000000 -0.0000000 )


      isym = 38     inv. 180 deg rotation - cart. axis [0,1,-1]  

 cryst.   s(38) = (     1          0          0      )
                  (     0          0          1      )
                  (     0          1          0      )

 cart.    s(38) = (  1.0000000  0.0000000 -0.0000000 )
                  ( -0.0000000  0.0000000  1.0000000 )
                  ( -0.0000000  1.0000000  0.0000000 )


      isym = 39     inv.  90 deg rotation - cart. axis [-1,0,0]  

 cryst.   s(39) = (     0          1         -1      )
                  (     0          0         -1      )
                  (     1          0         -1      )

 cart.    s(39) = ( -1.0000000  0.0000000  0.0000000 )
                  (  0.0000000  0.0000000 -1.0000000 )
                  (  0.0000000  1.0000000 -0.0000000 )


      isym = 40     inv.  90 deg rotation - cart. axis [1,0,0]   

 cryst.   s(40) = (     0         -1          1      )
                  (     1         -1          0      )
                  (     0         -1          0      )

 cart.    s(40) = ( -1.0000000 -0.0000000 -0.0000000 )
                  (  0.0000000 -0.0000000  1.0000000 )
                  (  0.0000000 -1.0000000  0.0000000 )


      isym = 41     inv. 120 deg rotation - cart. axis [-1,-1,-1]

 cryst.   s(41) = (     0          0         -1      )
                  (    -1          0          0      )
                  (     0         -1          0      )

 cart.    s(41) = ( -0.0000000 -1.0000000  0.0000000 )
                  ( -0.0000000  0.0000000 -1.0000000 )
                  ( -1.0000000  0.0000000 -0.0000000 )


      isym = 42     inv. 120 deg rotation - cart. axis [-1,1,1]  

 cryst.   s(42) = (    -1          1          0      )
                  (     0          1         -1      )
                  (     0          1          0      )

 cart.    s(42) = (  0.0000000  1.0000000  0.0000000 )
                  (  0.0000000 -0.0000000 -1.0000000 )
                  (  1.0000000 -0.0000000 -0.0000000 )


      isym = 43     inv. 120 deg rotation - cart. axis [1,1,-1]  

 cryst.   s(43) = (     1         -1          0      )
                  (     1          0          0      )
                  (     1          0         -1      )

 cart.    s(43) = (  0.0000000 -1.0000000 -0.0000000 )
                  (  0.0000000  0.0000000  1.0000000 )
                  (  1.0000000  0.0000000  0.0000000 )


      isym = 44     inv. 120 deg rotation - cart. axis [1,-1,1]  

 cryst.   s(44) = (     0          0          1      )
                  (     0         -1          1      )
                  (    -1          0          1      )

 cart.    s(44) = ( -0.0000000  1.0000000 -0.0000000 )
                  ( -0.0000000 -0.0000000  1.0000000 )
                  ( -1.0000000 -0.0000000  0.0000000 )


      isym = 45     inv. 120 deg rotation - cart. axis [1,1,1]   

 cryst.   s(45) = (     0         -1          0      )
                  (     0          0         -1      )
                  (    -1          0          0      )

 cart.    s(45) = (  0.0000000 -0.0000000 -1.0000000 )
                  ( -1.0000000 -0.0000000  0.0000000 )
                  ( -0.0000000 -1.0000000  0.0000000 )


      isym = 46     inv. 120 deg rotation - cart. axis [-1,1,-1] 

 cryst.   s(46) = (     1          0         -1      )
                  (     1         -1          0      )
                  (     1          0          0      )

 cart.    s(46) = ( -0.0000000  0.0000000 -1.0000000 )
                  (  1.0000000  0.0000000  0.0000000 )
                  (  0.0000000  1.0000000  0.0000000 )


      isym = 47     inv. 120 deg rotation - cart. axis [1,-1,-1] 

 cryst.   s(47) = (    -1          0          1      )
                  (     0          0          1      )
                  (     0         -1          1      )

 cart.    s(47) = ( -0.0000000 -0.0000000  1.0000000 )
                  (  1.0000000 -0.0000000 -0.0000000 )
                  (  0.0000000 -1.0000000 -0.0000000 )


      isym = 48     inv. 120 deg rotation - cart. axis [-1,-1,1] 

 cryst.   s(48) = (     0          1          0      )
                  (    -1          1          0      )
                  (     0          1         -1      )

 cart.    s(48) = (  0.0000000  0.0000000  1.0000000 )
                  ( -1.0000000  0.0000000 -0.0000000 )
                  ( -0.0000000  1.0000000 -0.0000000 )


   Cartesian axes

     site n.     atom                  positions (alat units)
         1           K   tau(   1) = (   0.7071068   0.0000000   0.0000000  )
         2           Rb  tau(   2) = (   0.3535534   0.3535534   1.0606602  )
         3           Rb  tau(   3) = (   0.3535534   1.0606602   1.0606602  )
         4           Ni  tau(   4) = (   0.0000000   0.0000000   0.0000000  )
         5           F   tau(   5) = (   1.1101576  -0.0000000  -0.0000000  )
         6           F   tau(   6) = (   0.7071068   0.4030509   0.0000000  )
         7           F   tau(   7) = (   0.0000000   0.0000000   1.1101576  )
         8           F   tau(   8) = (   0.7071068  -0.0000000   1.0111627  )
         9           F   tau(   9) = (   0.7071068   1.0111627  -0.0000000  )
        10           F   tau(  10) = (   0.3040559   0.0000000   0.0000000  )

   Crystallographic axes

     site n.     atom                  positions (cryst. coord.)
         1           K   tau(   1) = ( -0.5000000  0.5000000  0.5000000  )
         2           Rb  tau(   2) = (  0.7500000  0.7500000 -0.2500000  )
         3           Rb  tau(   3) = (  1.2500000  0.2500000  0.2500000  )
         4           Ni  tau(   4) = (  0.0000000  0.0000000  0.0000000  )
         5           F   tau(   5) = ( -0.7850000  0.7850000  0.7850000  )
         6           F   tau(   6) = ( -0.2150000  0.2150000  0.7850000  )
         7           F   tau(   7) = (  0.7850000  0.7850000 -0.7850000  )
         8           F   tau(   8) = (  0.2150000  1.2150000 -0.2150000  )
         9           F   tau(   9) = (  0.2150000 -0.2150000  1.2150000  )
        10           F   tau(  10) = ( -0.2150000  0.2150000  0.2150000  )

     number of k points=    35  Marzari-Vanderbilt smearing, width (Ry)=  0.0100
                       cart. coord. in units 2pi/alat
        k(    1) = (   0.0000000   0.0000000   0.0000000), wk =   0.0013717
        k(    2) = (   0.0785674   0.0785674  -0.0785674), wk =   0.0109739
        k(    3) = (   0.1571348   0.1571348  -0.1571348), wk =   0.0109739
        k(    4) = (   0.2357023   0.2357023  -0.2357023), wk =   0.0109739
        k(    5) = (   0.3142697   0.3142697  -0.3142697), wk =   0.0109739
        k(    6) = (   0.1571348   0.0000000  -0.0000000), wk =   0.0082305
        k(    7) = (   0.2357023   0.0785674  -0.0785674), wk =   0.0329218
        k(    8) = (   0.3142697   0.1571348  -0.1571348), wk =   0.0329218
        k(    9) = (   0.3928371   0.2357023  -0.2357023), wk =   0.0329218
        k(   10) = (  -0.2357023  -0.3928371   0.3928371), wk =   0.0329218
        k(   11) = (  -0.1571348  -0.3142697   0.3142697), wk =   0.0329218
        k(   12) = (  -0.0785674  -0.2357023   0.2357023), wk =   0.0329218
        k(   13) = (  -0.0000000  -0.1571348   0.1571348), wk =   0.0164609
        k(   14) = (   0.3142697   0.0000000  -0.0000000), wk =   0.0082305
        k(   15) = (   0.3928371   0.0785674  -0.0785674), wk =   0.0329218
        k(   16) = (   0.4714045   0.1571348  -0.1571348), wk =   0.0329218
        k(   17) = (  -0.1571348  -0.4714045   0.4714045), wk =   0.0329218
        k(   18) = (  -0.0785674  -0.3928371   0.3928371), wk =   0.0329218
        k(   19) = (  -0.0000000  -0.3142697   0.3142697), wk =   0.0164609
        k(   20) = (   0.4714045   0.0000000  -0.0000000), wk =   0.0082305
        k(   21) = (   0.5499719   0.0785674  -0.0785674), wk =   0.0329218
        k(   22) = (  -0.0785674  -0.5499719   0.5499719), wk =   0.0329218
        k(   23) = (  -0.0000000  -0.4714045   0.4714045), wk =   0.0164609
        k(   24) = (   0.6285394   0.0000000  -0.0000000), wk =   0.0082305
        k(   25) = (  -0.0000000  -0.6285394   0.6285394), wk =   0.0164609
        k(   26) = (   0.3142697   0.1571348  -0.0000000), wk =   0.0329218
        k(   27) = (   0.3928371   0.2357023  -0.0785674), wk =   0.0658436
        k(   28) = (  -0.2357023  -0.3928371   0.5499719), wk =   0.0658436
        k(   29) = (   0.4714045   0.1571348  -0.0000000), wk =   0.0329218
        k(   30) = (  -0.1571348  -0.4714045   0.6285394), wk =   0.0658436
        k(   31) = (  -0.0785674  -0.3928371   0.5499719), wk =   0.0658436
        k(   32) = (   0.0000000  -0.3142697   0.4714045), wk =   0.0329218
        k(   33) = (  -0.0785674  -0.5499719   0.7071068), wk =   0.0329218
        k(   34) = (  -0.0000000  -0.4714045   0.6285394), wk =   0.0329218
        k(   35) = (  -0.0785674  -0.3928371   0.7071068), wk =   0.0329218

                       cryst. coord.
        k(    1) = (   0.0000000   0.0000000   0.0000000), wk =   0.0013717
        k(    2) = (  -0.0000000  -0.0000000   0.1111111), wk =   0.0109739
        k(    3) = (  -0.0000000  -0.0000000   0.2222222), wk =   0.0109739
        k(    4) = (   0.0000000   0.0000000   0.3333333), wk =   0.0109739
        k(    5) = (  -0.0000000  -0.0000000   0.4444444), wk =   0.0109739
        k(    6) = (  -0.0000000   0.1111111   0.1111111), wk =   0.0082305
        k(    7) = (   0.0000000   0.1111111   0.2222222), wk =   0.0329218
        k(    8) = (   0.0000000   0.1111111   0.3333333), wk =   0.0329218
        k(    9) = (   0.0000000   0.1111111   0.4444444), wk =   0.0329218
        k(   10) = (   0.0000000   0.1111111  -0.4444444), wk =   0.0329218
        k(   11) = (  -0.0000000   0.1111111  -0.3333333), wk =   0.0329218
        k(   12) = (  -0.0000000   0.1111111  -0.2222222), wk =   0.0329218
        k(   13) = (   0.0000000   0.1111111  -0.1111111), wk =   0.0164609
        k(   14) = (  -0.0000000   0.2222222   0.2222222), wk =   0.0082305
        k(   15) = (   0.0000000   0.2222222   0.3333333), wk =   0.0329218
        k(   16) = (   0.0000000   0.2222222   0.4444444), wk =   0.0329218
        k(   17) = (  -0.0000000   0.2222222  -0.4444444), wk =   0.0329218
        k(   18) = (   0.0000000   0.2222222  -0.3333333), wk =   0.0329218
        k(   19) = (   0.0000000   0.2222222  -0.2222222), wk =   0.0164609
        k(   20) = (  -0.0000000   0.3333333   0.3333333), wk =   0.0082305
        k(   21) = (   0.0000000   0.3333333   0.4444444), wk =   0.0329218
        k(   22) = (   0.0000000   0.3333333  -0.4444444), wk =   0.0329218
        k(   23) = (   0.0000000   0.3333333  -0.3333333), wk =   0.0164609
        k(   24) = (  -0.0000000   0.4444444   0.4444444), wk =   0.0082305
        k(   25) = (   0.0000000   0.4444444  -0.4444444), wk =   0.0164609
        k(   26) = (   0.1111111   0.2222222   0.3333333), wk =   0.0329218
        k(   27) = (   0.1111111   0.2222222   0.4444444), wk =   0.0658436
        k(   28) = (   0.1111111   0.2222222  -0.4444444), wk =   0.0658436
        k(   29) = (   0.1111111   0.3333333   0.4444444), wk =   0.0329218
        k(   30) = (   0.1111111   0.3333333  -0.4444444), wk =   0.0658436
        k(   31) = (   0.1111111   0.3333333  -0.3333333), wk =   0.0658436
        k(   32) = (   0.1111111   0.3333333  -0.2222222), wk =   0.0329218
        k(   33) = (   0.1111111   0.4444444  -0.4444444), wk =   0.0329218
        k(   34) = (   0.1111111   0.4444444  -0.3333333), wk =   0.0329218
        k(   35) = (   0.2222222   0.4444444  -0.3333333), wk =   0.0329218

     Dense  grid:   199705 G-vectors     FFT dimensions: (  81,  81,  81)

     Smooth grid:    70721 G-vectors     FFT dimensions: (  60,  60,  60)

     Dynamical RAM for                 wfc:       7.13 MB

     Dynamical RAM for     wfc (w. buffer):     506.55 MB

     Dynamical RAM for           str. fact:      12.19 MB

     Dynamical RAM for           local pot:       0.00 MB

     Dynamical RAM for          nlocal pot:      16.15 MB

     Dynamical RAM for                qrad:       7.03 MB

     Dynamical RAM for          rho,v,vnew:      42.61 MB

     Dynamical RAM for               rhoin:      14.20 MB

     Dynamical RAM for            rho*nmix:      97.51 MB

     Dynamical RAM for           G-vectors:      11.97 MB

     Dynamical RAM for          h,s,v(r/c):       0.51 MB

     Dynamical RAM for          <psi|beta>:       0.10 MB

     Dynamical RAM for                 psi:      14.27 MB

     Dynamical RAM for                hpsi:      14.27 MB

     Dynamical RAM for                spsi:      14.27 MB

     Dynamical RAM for      wfcinit/wfcrot:      14.88 MB

     Dynamical RAM for           addusdens:     588.12 MB

     Dynamical RAM for          addusforce:     618.64 MB

     Dynamical RAM for         addusstress:     617.07 MB

     Estimated static dynamical RAM per process >     650.27 MB

     Estimated max dynamical RAM per process >       1.33 GB

     Check: negative core charge=   -0.000002
     Generating pointlists ...
     new r_m :   0.1254 (alat units)  1.4638 (a.u.) for type    1
     new r_m :   0.1663 (alat units)  1.9404 (a.u.) for type    2
     new r_m :   0.1254 (alat units)  1.4638 (a.u.) for type    3
     new r_m :   0.2073 (alat units)  2.4188 (a.u.) for type    4

     Initial potential from superposition of free atoms

     starting charge      84.9334, renormalised to      87.0000
     Starting wfcs are   55 randomized atomic wfcs
     Checking if some PAW data can be deallocated... 

     total cpu time spent up to now is        6.3 secs

     per-process dynamical memory:  1291.4 Mb

     Self-consistent Calculation
[tb_dev] Currently allocated     7.34E+00 Mbytes, locked:    0 /  13
[tb_pin] Currently allocated     0.00E+00 Mbytes, locked:    0 /   0

     iteration #  1     ecut=    60.00 Ry     beta= 0.40
     Davidson diagonalization with overlap

---- Real-time Memory Report at c_bands before calling an iterative solver
          1537 MiB given to the printing process from OS
          1277 MiB allocation reported by mallinfo(arena+hblkhd)
         57825 MiB available memory on the node where the printing process lives
     GPU memory used/free/total (MiB): 1168 / 15112 / 16280
------------------
     ethr =  1.00E-02,  avg # of iterations =  7.7

     total cpu time spent up to now is       12.9 secs

     total energy              =    -843.38763139 Ry
     estimated scf accuracy    <       2.66448710 Ry

     total magnetization       =     3.00 Bohr mag/cell
     absolute magnetization    =     3.54 Bohr mag/cell
[tb_dev] Currently allocated     7.34E+00 Mbytes, locked:    0 /  11
[tb_pin] Currently allocated     0.00E+00 Mbytes, locked:    0 /   0

     iteration #  2     ecut=    60.00 Ry     beta= 0.40
     Davidson diagonalization with overlap

---- Real-time Memory Report at c_bands before calling an iterative solver
          1652 MiB given to the printing process from OS
          1322 MiB allocation reported by mallinfo(arena+hblkhd)
         57779 MiB available memory on the node where the printing process lives
     GPU memory used/free/total (MiB): 2026 / 14254 / 16280
------------------
     ethr =  3.06E-03,  avg # of iterations =  2.5

     total cpu time spent up to now is       17.4 secs

     total energy              =    -843.43886075 Ry
     estimated scf accuracy    <       4.33872976 Ry

     total magnetization       =     3.00 Bohr mag/cell
     absolute magnetization    =     3.25 Bohr mag/cell
[tb_dev] Currently allocated     7.34E+00 Mbytes, locked:    0 /  11
[tb_pin] Currently allocated     0.00E+00 Mbytes, locked:    0 /   0

     iteration #  3     ecut=    60.00 Ry     beta= 0.40
     Davidson diagonalization with overlap

---- Real-time Memory Report at c_bands before calling an iterative solver
          1721 MiB given to the printing process from OS
          1328 MiB allocation reported by mallinfo(arena+hblkhd)
         57775 MiB available memory on the node where the printing process lives
     GPU memory used/free/total (MiB): 2118 / 14162 / 16280
------------------
     ethr =  3.06E-03,  avg # of iterations =  2.2

     total cpu time spent up to now is       21.6 secs

     total energy              =    -844.07825638 Ry
     estimated scf accuracy    <       0.36814174 Ry

     total magnetization       =     3.00 Bohr mag/cell
     absolute magnetization    =     3.33 Bohr mag/cell
[tb_dev] Currently allocated     7.34E+00 Mbytes, locked:    0 /  11
[tb_pin] Currently allocated     0.00E+00 Mbytes, locked:    0 /   0

     iteration #  4     ecut=    60.00 Ry     beta= 0.40
     Davidson diagonalization with overlap

---- Real-time Memory Report at c_bands before calling an iterative solver
          1793 MiB given to the printing process from OS
          1337 MiB allocation reported by mallinfo(arena+hblkhd)
         57767 MiB available memory on the node where the printing process lives
     GPU memory used/free/total (MiB): 2118 / 14162 / 16280
------------------
     ethr =  4.23E-04,  avg # of iterations =  4.7

     total cpu time spent up to now is       26.8 secs

     total energy              =    -844.13240471 Ry
     estimated scf accuracy    <       0.01886590 Ry

     total magnetization       =     3.03 Bohr mag/cell
     absolute magnetization    =     3.19 Bohr mag/cell
[tb_dev] Currently allocated     7.34E+00 Mbytes, locked:    0 /  11
[tb_pin] Currently allocated     0.00E+00 Mbytes, locked:    0 /   0

     iteration #  5     ecut=    60.00 Ry     beta= 0.40
     Davidson diagonalization with overlap

---- Real-time Memory Report at c_bands before calling an iterative solver
          1859 MiB given to the printing process from OS
          1341 MiB allocation reported by mallinfo(arena+hblkhd)
         57764 MiB available memory on the node where the printing process lives
     GPU memory used/free/total (MiB): 2216 / 14064 / 16280
------------------
     ethr =  2.17E-05,  avg # of iterations =  9.0

     total cpu time spent up to now is       34.0 secs

     total energy              =    -844.13521590 Ry
     estimated scf accuracy    <       0.04852745 Ry

     total magnetization       =     2.38 Bohr mag/cell
     absolute magnetization    =     2.52 Bohr mag/cell
[tb_dev] Currently allocated     7.34E+00 Mbytes, locked:    0 /  11
[tb_pin] Currently allocated     0.00E+00 Mbytes, locked:    0 /   0

     iteration #  6     ecut=    60.00 Ry     beta= 0.40
     Davidson diagonalization with overlap

---- Real-time Memory Report at c_bands before calling an iterative solver
          1932 MiB given to the printing process from OS
          1351 MiB allocation reported by mallinfo(arena+hblkhd)
         57752 MiB available memory on the node where the printing process lives
     GPU memory used/free/total (MiB): 2216 / 14064 / 16280
------------------
     ethr =  2.17E-05,  avg # of iterations =  1.0

     total cpu time spent up to now is       37.6 secs

     total energy              =    -844.12348923 Ry
     estimated scf accuracy    <       0.07008280 Ry

     total magnetization       =     1.90 Bohr mag/cell
     absolute magnetization    =     2.06 Bohr mag/cell
[tb_dev] Currently allocated     7.34E+00 Mbytes, locked:    0 /  11
[tb_pin] Currently allocated     0.00E+00 Mbytes, locked:    0 /   0

     iteration #  7     ecut=    60.00 Ry     beta= 0.40
     Davidson diagonalization with overlap

---- Real-time Memory Report at c_bands before calling an iterative solver
          2004 MiB given to the printing process from OS
          1360 MiB allocation reported by mallinfo(arena+hblkhd)
         57748 MiB available memory on the node where the printing process lives
     GPU memory used/free/total (MiB): 2216 / 14064 / 16280
------------------
     ethr =  2.17E-05,  avg # of iterations =  1.5

     total cpu time spent up to now is       41.5 secs

     total energy              =    -844.13023108 Ry
     estimated scf accuracy    <       0.00310568 Ry

     total magnetization       =     3.21 Bohr mag/cell
     absolute magnetization    =     3.32 Bohr mag/cell
[tb_dev] Currently allocated     7.34E+00 Mbytes, locked:    0 /  11
[tb_pin] Currently allocated     0.00E+00 Mbytes, locked:    0 /   0

     iteration #  8     ecut=    60.00 Ry     beta= 0.40
     Davidson diagonalization with overlap

---- Real-time Memory Report at c_bands before calling an iterative solver
          2073 MiB given to the printing process from OS
          1366 MiB allocation reported by mallinfo(arena+hblkhd)
         57738 MiB available memory on the node where the printing process lives
     GPU memory used/free/total (MiB): 2216 / 14064 / 16280
------------------
     ethr =  3.57E-06,  avg # of iterations =  2.6

     total cpu time spent up to now is       45.9 secs

     total energy              =    -844.12778928 Ry
     estimated scf accuracy    <       0.00832520 Ry

     total magnetization       =     3.18 Bohr mag/cell
     absolute magnetization    =     3.29 Bohr mag/cell
[tb_dev] Currently allocated     7.34E+00 Mbytes, locked:    0 /  11
[tb_pin] Currently allocated     0.00E+00 Mbytes, locked:    0 /   0

     iteration #  9     ecut=    60.00 Ry     beta= 0.40
     Davidson diagonalization with overlap

---- Real-time Memory Report at c_bands before calling an iterative solver
          2107 MiB given to the printing process from OS
          1372 MiB allocation reported by mallinfo(arena+hblkhd)
         57733 MiB available memory on the node where the printing process lives
     GPU memory used/free/total (MiB): 2216 / 14064 / 16280
------------------
     ethr =  3.57E-06,  avg # of iterations =  2.0

     total cpu time spent up to now is       50.1 secs

     total energy              =    -844.12823273 Ry
     estimated scf accuracy    <       0.03765967 Ry

     total magnetization       =     3.14 Bohr mag/cell
     absolute magnetization    =     3.27 Bohr mag/cell
[tb_dev] Currently allocated     7.34E+00 Mbytes, locked:    0 /  11
[tb_pin] Currently allocated     0.00E+00 Mbytes, locked:    0 /   0

     iteration # 10     ecut=    60.00 Ry     beta= 0.40
     Davidson diagonalization with overlap

---- Real-time Memory Report at c_bands before calling an iterative solver
          2135 MiB given to the printing process from OS
          1380 MiB allocation reported by mallinfo(arena+hblkhd)
         57724 MiB available memory on the node where the printing process lives
     GPU memory used/free/total (MiB): 2216 / 14064 / 16280
------------------
     ethr =  3.57E-06,  avg # of iterations =  1.0

     total cpu time spent up to now is       53.8 secs

     total energy              =    -844.12675083 Ry
     estimated scf accuracy    <       0.03973097 Ry

     total magnetization       =     3.13 Bohr mag/cell
     absolute magnetization    =     3.26 Bohr mag/cell
[tb_dev] Currently allocated     7.34E+00 Mbytes, locked:    0 /  11
[tb_pin] Currently allocated     0.00E+00 Mbytes, locked:    0 /   0

     iteration # 11     ecut=    60.00 Ry     beta= 0.40
     Davidson diagonalization with overlap

---- Real-time Memory Report at c_bands before calling an iterative solver
          2158 MiB given to the printing process from OS
          1382 MiB allocation reported by mallinfo(arena+hblkhd)
         57725 MiB available memory on the node where the printing process lives
     GPU memory used/free/total (MiB): 2216 / 14064 / 16280
------------------
     ethr =  3.57E-06,  avg # of iterations =  1.0

     total cpu time spent up to now is       57.5 secs

     total energy              =    -844.13002708 Ry
     estimated scf accuracy    <       0.05726673 Ry

     total magnetization       =     3.08 Bohr mag/cell
     absolute magnetization    =     3.22 Bohr mag/cell
[tb_dev] Currently allocated     7.34E+00 Mbytes, locked:    0 /  11
[tb_pin] Currently allocated     0.00E+00 Mbytes, locked:    0 /   0

     iteration # 12     ecut=    60.00 Ry     beta= 0.40
     Davidson diagonalization with overlap

---- Real-time Memory Report at c_bands before calling an iterative solver
          2179 MiB given to the printing process from OS
          1384 MiB allocation reported by mallinfo(arena+hblkhd)
         57722 MiB available memory on the node where the printing process lives
     GPU memory used/free/total (MiB): 2216 / 14064 / 16280
------------------
     ethr =  3.57E-06,  avg # of iterations =  2.9

     total cpu time spent up to now is       62.3 secs

     total energy              =    -844.13154282 Ry
     estimated scf accuracy    <       0.00478855 Ry

     total magnetization       =     3.03 Bohr mag/cell
     absolute magnetization    =     3.13 Bohr mag/cell
[tb_dev] Currently allocated     7.34E+00 Mbytes, locked:    0 /  11
[tb_pin] Currently allocated     0.00E+00 Mbytes, locked:    0 /   0

     iteration # 13     ecut=    60.00 Ry     beta= 0.40
     Davidson diagonalization with overlap

---- Real-time Memory Report at c_bands before calling an iterative solver
          2201 MiB given to the printing process from OS
          1386 MiB allocation reported by mallinfo(arena+hblkhd)
         57720 MiB available memory on the node where the printing process lives
     GPU memory used/free/total (MiB): 2216 / 14064 / 16280
------------------
     ethr =  3.57E-06,  avg # of iterations =  2.5

     total cpu time spent up to now is       66.9 secs

     total energy              =    -844.14154471 Ry
     estimated scf accuracy    <       0.06504179 Ry

     total magnetization       =     1.38 Bohr mag/cell
     absolute magnetization    =     1.55 Bohr mag/cell
[tb_dev] Currently allocated     7.34E+00 Mbytes, locked:    0 /  11
[tb_pin] Currently allocated     0.00E+00 Mbytes, locked:    0 /   0

     iteration # 14     ecut=    60.00 Ry     beta= 0.40
     Davidson diagonalization with overlap

---- Real-time Memory Report at c_bands before calling an iterative solver
          2221 MiB given to the printing process from OS
          1388 MiB allocation reported by mallinfo(arena+hblkhd)
         57717 MiB available memory on the node where the printing process lives
     GPU memory used/free/total (MiB): 2216 / 14064 / 16280
------------------
     ethr =  3.57E-06,  avg # of iterations =  2.0

     total cpu time spent up to now is       71.0 secs

     total energy              =    -844.14176552 Ry
     estimated scf accuracy    <       0.10093289 Ry

     total magnetization       =     0.72 Bohr mag/cell
     absolute magnetization    =     0.99 Bohr mag/cell
[tb_dev] Currently allocated     7.34E+00 Mbytes, locked:    0 /  11
[tb_pin] Currently allocated     0.00E+00 Mbytes, locked:    0 /   0

     iteration # 15     ecut=    60.00 Ry     beta= 0.40
     Davidson diagonalization with overlap

---- Real-time Memory Report at c_bands before calling an iterative solver
          2243 MiB given to the printing process from OS
          1390 MiB allocation reported by mallinfo(arena+hblkhd)
         57715 MiB available memory on the node where the printing process lives
     GPU memory used/free/total (MiB): 2216 / 14064 / 16280
------------------
     ethr =  3.57E-06,  avg # of iterations =  1.0

     total cpu time spent up to now is       74.6 secs

     total energy              =    -844.13627730 Ry
     estimated scf accuracy    <       0.09531544 Ry

     total magnetization       =     0.83 Bohr mag/cell
     absolute magnetization    =     1.07 Bohr mag/cell
[tb_dev] Currently allocated     7.34E+00 Mbytes, locked:    0 /  11
[tb_pin] Currently allocated     0.00E+00 Mbytes, locked:    0 /   0

     iteration # 16     ecut=    60.00 Ry     beta= 0.40
     Davidson diagonalization with overlap

---- Real-time Memory Report at c_bands before calling an iterative solver
          2264 MiB given to the printing process from OS
          1391 MiB allocation reported by mallinfo(arena+hblkhd)
         57714 MiB available memory on the node where the printing process lives
     GPU memory used/free/total (MiB): 2216 / 14064 / 16280
------------------
     ethr =  3.57E-06,  avg # of iterations =  2.0

     total cpu time spent up to now is       78.7 secs

     total energy              =    -844.11075559 Ry
     estimated scf accuracy    <       0.05937810 Ry

     total magnetization       =     1.46 Bohr mag/cell
     absolute magnetization    =     1.61 Bohr mag/cell
[tb_dev] Currently allocated     7.34E+00 Mbytes, locked:    0 /  11
[tb_pin] Currently allocated     0.00E+00 Mbytes, locked:    0 /   0

     iteration # 17     ecut=    60.00 Ry     beta= 0.40
     Davidson diagonalization with overlap

---- Real-time Memory Report at c_bands before calling an iterative solver
          2286 MiB given to the printing process from OS
          1393 MiB allocation reported by mallinfo(arena+hblkhd)
         57714 MiB available memory on the node where the printing process lives
     GPU memory used/free/total (MiB): 2216 / 14064 / 16280
------------------
     ethr =  3.57E-06,  avg # of iterations =  3.0

     total cpu time spent up to now is       83.6 secs

     total energy              =    -844.12892085 Ry
     estimated scf accuracy    <       0.02400575 Ry

     total magnetization       =     3.17 Bohr mag/cell
     absolute magnetization    =     3.29 Bohr mag/cell
[tb_dev] Currently allocated     7.34E+00 Mbytes, locked:    0 /  11
[tb_pin] Currently allocated     0.00E+00 Mbytes, locked:    0 /   0

     iteration # 18     ecut=    60.00 Ry     beta= 0.40
     Davidson diagonalization with overlap

---- Real-time Memory Report at c_bands before calling an iterative solver
          2310 MiB given to the printing process from OS
          1395 MiB allocation reported by mallinfo(arena+hblkhd)
         57714 MiB available memory on the node where the printing process lives
     GPU memory used/free/total (MiB): 2216 / 14064 / 16280
------------------
     ethr =  3.57E-06,  avg # of iterations =  1.0

     total cpu time spent up to now is       87.2 secs

     total energy              =    -844.13001933 Ry
     estimated scf accuracy    <       0.02864044 Ry

     total magnetization       =     3.15 Bohr mag/cell
     absolute magnetization    =     3.28 Bohr mag/cell
[tb_dev] Currently allocated     7.34E+00 Mbytes, locked:    0 /  11
[tb_pin] Currently allocated     0.00E+00 Mbytes, locked:    0 /   0

     iteration # 19     ecut=    60.00 Ry     beta= 0.40
     Davidson diagonalization with overlap

---- Real-time Memory Report at c_bands before calling an iterative solver
          2331 MiB given to the printing process from OS
          1397 MiB allocation reported by mallinfo(arena+hblkhd)
         57711 MiB available memory on the node where the printing process lives
     GPU memory used/free/total (MiB): 2216 / 14064 / 16280
------------------
     ethr =  3.57E-06,  avg # of iterations =  3.0

     total cpu time spent up to now is       92.0 secs

     total energy              =    -844.13194482 Ry
     estimated scf accuracy    <       0.02099434 Ry

     total magnetization       =     2.29 Bohr mag/cell
     absolute magnetization    =     2.40 Bohr mag/cell
[tb_dev] Currently allocated     7.34E+00 Mbytes, locked:    0 /  11
[tb_pin] Currently allocated     0.00E+00 Mbytes, locked:    0 /   0

     iteration # 20     ecut=    60.00 Ry     beta= 0.40
     Davidson diagonalization with overlap

---- Real-time Memory Report at c_bands before calling an iterative solver
          2333 MiB given to the printing process from OS
          1399 MiB allocation reported by mallinfo(arena+hblkhd)
         57709 MiB available memory on the node where the printing process lives
     GPU memory used/free/total (MiB): 2216 / 14064 / 16280
------------------
     ethr =  3.57E-06,  avg # of iterations =  1.4

     total cpu time spent up to now is       95.8 secs

     total energy              =    -844.13293081 Ry
     estimated scf accuracy    <       0.00757414 Ry

     total magnetization       =     2.77 Bohr mag/cell
     absolute magnetization    =     2.87 Bohr mag/cell
[tb_dev] Currently allocated     7.34E+00 Mbytes, locked:    0 /  11
[tb_pin] Currently allocated     0.00E+00 Mbytes, locked:    0 /   0

     iteration # 21     ecut=    60.00 Ry     beta= 0.40
     Davidson diagonalization with overlap

---- Real-time Memory Report at c_bands before calling an iterative solver
          2335 MiB given to the printing process from OS
          1401 MiB allocation reported by mallinfo(arena+hblkhd)
         57704 MiB available memory on the node where the printing process lives
     GPU memory used/free/total (MiB): 2216 / 14064 / 16280
------------------
     ethr =  3.57E-06,  avg # of iterations =  1.0

     total cpu time spent up to now is       99.5 secs

     total energy              =    -844.13111378 Ry
     estimated scf accuracy    <       0.01047946 Ry

     total magnetization       =     2.61 Bohr mag/cell
     absolute magnetization    =     2.71 Bohr mag/cell
[tb_dev] Currently allocated     7.34E+00 Mbytes, locked:    0 /  11
[tb_pin] Currently allocated     0.00E+00 Mbytes, locked:    0 /   0

     iteration # 22     ecut=    60.00 Ry     beta= 0.40
     Davidson diagonalization with overlap

---- Real-time Memory Report at c_bands before calling an iterative solver
          2336 MiB given to the printing process from OS
          1403 MiB allocation reported by mallinfo(arena+hblkhd)
         57707 MiB available memory on the node where the printing process lives
     GPU memory used/free/total (MiB): 2216 / 14064 / 16280
------------------
     ethr =  3.57E-06,  avg # of iterations =  2.1

     total cpu time spent up to now is      103.6 secs

     total energy              =    -844.13064562 Ry
     estimated scf accuracy    <       0.00460220 Ry

     total magnetization       =     3.03 Bohr mag/cell
     absolute magnetization    =     3.13 Bohr mag/cell
[tb_dev] Currently allocated     7.34E+00 Mbytes, locked:    0 /  11
[tb_pin] Currently allocated     0.00E+00 Mbytes, locked:    0 /   0

     iteration # 23     ecut=    60.00 Ry     beta= 0.40
     Davidson diagonalization with overlap

---- Real-time Memory Report at c_bands before calling an iterative solver
          2339 MiB given to the printing process from OS
          1405 MiB allocation reported by mallinfo(arena+hblkhd)
         57706 MiB available memory on the node where the printing process lives
     GPU memory used/free/total (MiB): 2216 / 14064 / 16280
------------------
     ethr =  3.57E-06,  avg # of iterations =  2.0

     total cpu time spent up to now is      107.6 secs

     total energy              =    -844.12373541 Ry
     estimated scf accuracy    <       0.00653014 Ry

     total magnetization       =     3.19 Bohr mag/cell
     absolute magnetization    =     3.29 Bohr mag/cell
[tb_dev] Currently allocated     7.34E+00 Mbytes, locked:    0 /  11
[tb_pin] Currently allocated     0.00E+00 Mbytes, locked:    0 /   0

     iteration # 24     ecut=    60.00 Ry     beta= 0.40
     Davidson diagonalization with overlap

---- Real-time Memory Report at c_bands before calling an iterative solver
          2342 MiB given to the printing process from OS
          1407 MiB allocation reported by mallinfo(arena+hblkhd)
         57705 MiB available memory on the node where the printing process lives
     GPU memory used/free/total (MiB): 2216 / 14064 / 16280
------------------
     ethr =  3.57E-06,  avg # of iterations =  2.5

     total cpu time spent up to now is      112.2 secs

     total energy              =    -844.12160703 Ry
     estimated scf accuracy    <       0.06664108 Ry

     total magnetization       =     3.03 Bohr mag/cell
     absolute magnetization    =     3.19 Bohr mag/cell
[tb_dev] Currently allocated     7.34E+00 Mbytes, locked:    0 /  11
[tb_pin] Currently allocated     0.00E+00 Mbytes, locked:    0 /   0

     iteration # 25     ecut=    60.00 Ry     beta= 0.40
     Davidson diagonalization with overlap

---- Real-time Memory Report at c_bands before calling an iterative solver
          2342 MiB given to the printing process from OS
          1409 MiB allocation reported by mallinfo(arena+hblkhd)
         57701 MiB available memory on the node where the printing process lives
     GPU memory used/free/total (MiB): 2216 / 14064 / 16280
------------------
     ethr =  3.57E-06,  avg # of iterations =  2.0

     total cpu time spent up to now is      116.2 secs

     total energy              =    -844.13010257 Ry
     estimated scf accuracy    <       0.09049619 Ry

     total magnetization       =     3.01 Bohr mag/cell
     absolute magnetization    =     3.18 Bohr mag/cell
[tb_dev] Currently allocated     7.34E+00 Mbytes, locked:    0 /  11
[tb_pin] Currently allocated     0.00E+00 Mbytes, locked:    0 /   0

     iteration # 26     ecut=    60.00 Ry     beta= 0.40
     Davidson diagonalization with overlap

---- Real-time Memory Report at c_bands before calling an iterative solver
          2345 MiB given to the printing process from OS
          1411 MiB allocation reported by mallinfo(arena+hblkhd)
         57699 MiB available memory on the node where the printing process lives
     GPU memory used/free/total (MiB): 2216 / 14064 / 16280
------------------
     ethr =  3.57E-06,  avg # of iterations =  2.5

     total cpu time spent up to now is      120.8 secs

     total energy              =    -844.13144686 Ry
     estimated scf accuracy    <       0.01096495 Ry

     total magnetization       =     3.19 Bohr mag/cell
     absolute magnetization    =     3.30 Bohr mag/cell
[tb_dev] Currently allocated     7.34E+00 Mbytes, locked:    0 /  11
[tb_pin] Currently allocated     0.00E+00 Mbytes, locked:    0 /   0

     iteration # 27     ecut=    60.00 Ry     beta= 0.40
     Davidson diagonalization with overlap

---- Real-time Memory Report at c_bands before calling an iterative solver
          2347 MiB given to the printing process from OS
          1413 MiB allocation reported by mallinfo(arena+hblkhd)
         57700 MiB available memory on the node where the printing process lives
     GPU memory used/free/total (MiB): 2216 / 14064 / 16280
------------------
     ethr =  3.57E-06,  avg # of iterations =  2.0

     total cpu time spent up to now is      125.0 secs

     total energy              =    -844.13375944 Ry
     estimated scf accuracy    <       0.01915967 Ry

     total magnetization       =     2.50 Bohr mag/cell
     absolute magnetization    =     2.61 Bohr mag/cell
[tb_dev] Currently allocated     7.34E+00 Mbytes, locked:    0 /  11
[tb_pin] Currently allocated     0.00E+00 Mbytes, locked:    0 /   0

     iteration # 28     ecut=    60.00 Ry     beta= 0.40
     Davidson diagonalization with overlap

---- Real-time Memory Report at c_bands before calling an iterative solver
          2348 MiB given to the printing process from OS
          1415 MiB allocation reported by mallinfo(arena+hblkhd)
         57695 MiB available memory on the node where the printing process lives
     GPU memory used/free/total (MiB): 2216 / 14064 / 16280
------------------
     ethr =  3.57E-06,  avg # of iterations =  1.0

     total cpu time spent up to now is      128.6 secs

     total energy              =    -844.13162840 Ry
     estimated scf accuracy    <       0.02626793 Ry

     total magnetization       =     2.31 Bohr mag/cell
     absolute magnetization    =     2.43 Bohr mag/cell
[tb_dev] Currently allocated     7.34E+00 Mbytes, locked:    0 /  11
[tb_pin] Currently allocated     0.00E+00 Mbytes, locked:    0 /   0

     iteration # 29     ecut=    60.00 Ry     beta= 0.40
     Davidson diagonalization with overlap

---- Real-time Memory Report at c_bands before calling an iterative solver
          2350 MiB given to the printing process from OS
          1417 MiB allocation reported by mallinfo(arena+hblkhd)
         57696 MiB available memory on the node where the printing process lives
     GPU memory used/free/total (MiB): 2216 / 14064 / 16280
------------------
     ethr =  3.57E-06,  avg # of iterations =  1.5

     total cpu time spent up to now is      132.5 secs

     total energy              =    -844.12464535 Ry
     estimated scf accuracy    <       0.01103133 Ry

     total magnetization       =     2.83 Bohr mag/cell
     absolute magnetization    =     2.93 Bohr mag/cell
[tb_dev] Currently allocated     7.34E+00 Mbytes, locked:    0 /  11
[tb_pin] Currently allocated     0.00E+00 Mbytes, locked:    0 /   0

     iteration # 30     ecut=    60.00 Ry     beta= 0.40
     Davidson diagonalization with overlap

---- Real-time Memory Report at c_bands before calling an iterative solver
          2353 MiB given to the printing process from OS
          1419 MiB allocation reported by mallinfo(arena+hblkhd)
         57694 MiB available memory on the node where the printing process lives
     GPU memory used/free/total (MiB): 2216 / 14064 / 16280
------------------
     ethr =  3.57E-06,  avg # of iterations =  2.5

     total cpu time spent up to now is      137.0 secs

     total energy              =    -844.12680555 Ry
     estimated scf accuracy    <       0.03605660 Ry

     total magnetization       =     3.11 Bohr mag/cell
     absolute magnetization    =     3.24 Bohr mag/cell
[tb_dev] Currently allocated     7.34E+00 Mbytes, locked:    0 /  11
[tb_pin] Currently allocated     0.00E+00 Mbytes, locked:    0 /   0

     iteration # 31     ecut=    60.00 Ry     beta= 0.40
     Davidson diagonalization with overlap

---- Real-time Memory Report at c_bands before calling an iterative solver
          2354 MiB given to the printing process from OS
          1421 MiB allocation reported by mallinfo(arena+hblkhd)
         57690 MiB available memory on the node where the printing process lives
     GPU memory used/free/total (MiB): 2216 / 14064 / 16280
------------------
     ethr =  3.57E-06,  avg # of iterations =  1.0

     total cpu time spent up to now is      140.6 secs

     total energy              =    -844.12855202 Ry
     estimated scf accuracy    <       0.04577230 Ry

     total magnetization       =     3.07 Bohr mag/cell
     absolute magnetization    =     3.21 Bohr mag/cell
[tb_dev] Currently allocated     7.34E+00 Mbytes, locked:    0 /  11
[tb_pin] Currently allocated     0.00E+00 Mbytes, locked:    0 /   0

     iteration # 32     ecut=    60.00 Ry     beta= 0.40
     Davidson diagonalization with overlap

---- Real-time Memory Report at c_bands before calling an iterative solver
          2356 MiB given to the printing process from OS
          1423 MiB allocation reported by mallinfo(arena+hblkhd)
         57686 MiB available memory on the node where the printing process lives
     GPU memory used/free/total (MiB): 2216 / 14064 / 16280
------------------
     ethr =  3.57E-06,  avg # of iterations =  1.0

     total cpu time spent up to now is      144.3 secs

     total energy              =    -844.12818974 Ry
     estimated scf accuracy    <       0.02730199 Ry

     total magnetization       =     3.14 Bohr mag/cell
     absolute magnetization    =     3.26 Bohr mag/cell
[tb_dev] Currently allocated     7.34E+00 Mbytes, locked:    0 /  11
[tb_pin] Currently allocated     0.00E+00 Mbytes, locked:    0 /   0

     iteration # 33     ecut=    60.00 Ry     beta= 0.40
     Davidson diagonalization with overlap

---- Real-time Memory Report at c_bands before calling an iterative solver
          2359 MiB given to the printing process from OS
          1424 MiB allocation reported by mallinfo(arena+hblkhd)
         57686 MiB available memory on the node where the printing process lives
     GPU memory used/free/total (MiB): 2216 / 14064 / 16280
------------------
     ethr =  3.57E-06,  avg # of iterations =  1.0

     total cpu time spent up to now is      147.9 secs

     total energy              =    -844.13128245 Ry
     estimated scf accuracy    <       0.03180577 Ry

     total magnetization       =     3.12 Bohr mag/cell
     absolute magnetization    =     3.25 Bohr mag/cell
[tb_dev] Currently allocated     7.34E+00 Mbytes, locked:    0 /  11
[tb_pin] Currently allocated     0.00E+00 Mbytes, locked:    0 /   0

     iteration # 34     ecut=    60.00 Ry     beta= 0.40
     Davidson diagonalization with overlap

---- Real-time Memory Report at c_bands before calling an iterative solver
          2359 MiB given to the printing process from OS
          1426 MiB allocation reported by mallinfo(arena+hblkhd)
         57684 MiB available memory on the node where the printing process lives
     GPU memory used/free/total (MiB): 2216 / 14064 / 16280
------------------
     ethr =  3.57E-06,  avg # of iterations =  2.0

     total cpu time spent up to now is      152.1 secs

     total energy              =    -844.13101072 Ry
     estimated scf accuracy    <       0.00749662 Ry

     total magnetization       =     3.03 Bohr mag/cell
     absolute magnetization    =     3.13 Bohr mag/cell
[tb_dev] Currently allocated     7.34E+00 Mbytes, locked:    0 /  11
[tb_pin] Currently allocated     0.00E+00 Mbytes, locked:    0 /   0

     iteration # 35     ecut=    60.00 Ry     beta= 0.40
     Davidson diagonalization with overlap

---- Real-time Memory Report at c_bands before calling an iterative solver
          2362 MiB given to the printing process from OS
          1428 MiB allocation reported by mallinfo(arena+hblkhd)
         57682 MiB available memory on the node where the printing process lives
     GPU memory used/free/total (MiB): 2216 / 14064 / 16280
------------------
     ethr =  3.57E-06,  avg # of iterations =  1.0

     total cpu time spent up to now is      155.7 secs

     total energy              =    -844.13117183 Ry
     estimated scf accuracy    <       0.00712684 Ry

     total magnetization       =     3.16 Bohr mag/cell
     absolute magnetization    =     3.26 Bohr mag/cell
[tb_dev] Currently allocated     7.34E+00 Mbytes, locked:    0 /  11
[tb_pin] Currently allocated     0.00E+00 Mbytes, locked:    0 /   0

     iteration # 36     ecut=    60.00 Ry     beta= 0.40
     Davidson diagonalization with overlap

---- Real-time Memory Report at c_bands before calling an iterative solver
          2364 MiB given to the printing process from OS
          1430 MiB allocation reported by mallinfo(arena+hblkhd)
         57683 MiB available memory on the node where the printing process lives
     GPU memory used/free/total (MiB): 2216 / 14064 / 16280
------------------
     ethr =  3.57E-06,  avg # of iterations =  1.0

     total cpu time spent up to now is      159.3 secs

     total energy              =    -844.12949944 Ry
     estimated scf accuracy    <       0.00714251 Ry

     total magnetization       =     3.16 Bohr mag/cell
     absolute magnetization    =     3.26 Bohr mag/cell
[tb_dev] Currently allocated     7.34E+00 Mbytes, locked:    0 /  11
[tb_pin] Currently allocated     0.00E+00 Mbytes, locked:    0 /   0

     iteration # 37     ecut=    60.00 Ry     beta= 0.40
     Davidson diagonalization with overlap

---- Real-time Memory Report at c_bands before calling an iterative solver
          2367 MiB given to the printing process from OS
          1432 MiB allocation reported by mallinfo(arena+hblkhd)
         57681 MiB available memory on the node where the printing process lives
     GPU memory used/free/total (MiB): 2216 / 14064 / 16280
------------------
     ethr =  3.57E-06,  avg # of iterations =  2.0

     total cpu time spent up to now is      163.4 secs

     total energy              =    -844.13055824 Ry
     estimated scf accuracy    <       0.01613106 Ry

     total magnetization       =     3.19 Bohr mag/cell
     absolute magnetization    =     3.30 Bohr mag/cell
[tb_dev] Currently allocated     7.34E+00 Mbytes, locked:    0 /  11
[tb_pin] Currently allocated     0.00E+00 Mbytes, locked:    0 /   0

     iteration # 38     ecut=    60.00 Ry     beta= 0.40
     Davidson diagonalization with overlap

---- Real-time Memory Report at c_bands before calling an iterative solver
          2368 MiB given to the printing process from OS
          1434 MiB allocation reported by mallinfo(arena+hblkhd)
         57678 MiB available memory on the node where the printing process lives
     GPU memory used/free/total (MiB): 2216 / 14064 / 16280
------------------
     ethr =  3.57E-06,  avg # of iterations =  2.5

     total cpu time spent up to now is      168.0 secs

     total energy              =    -844.12703303 Ry
     estimated scf accuracy    <       0.02885688 Ry

     total magnetization       =     2.13 Bohr mag/cell
     absolute magnetization    =     2.25 Bohr mag/cell
[tb_dev] Currently allocated     7.34E+00 Mbytes, locked:    0 /  11
[tb_pin] Currently allocated     0.00E+00 Mbytes, locked:    0 /   0

     iteration # 39     ecut=    60.00 Ry     beta= 0.40
     Davidson diagonalization with overlap

---- Real-time Memory Report at c_bands before calling an iterative solver
          2370 MiB given to the printing process from OS
          1436 MiB allocation reported by mallinfo(arena+hblkhd)
         57674 MiB available memory on the node where the printing process lives
     GPU memory used/free/total (MiB): 2216 / 14064 / 16280
------------------
     ethr =  3.57E-06,  avg # of iterations =  2.0

     total cpu time spent up to now is      172.2 secs

     total energy              =    -844.12770429 Ry
     estimated scf accuracy    <       0.00677884 Ry

     total magnetization       =     3.15 Bohr mag/cell
     absolute magnetization    =     3.25 Bohr mag/cell
[tb_dev] Currently allocated     7.34E+00 Mbytes, locked:    0 /  11
[tb_pin] Currently allocated     0.00E+00 Mbytes, locked:    0 /   0

     iteration # 40     ecut=    60.00 Ry     beta= 0.40
     Davidson diagonalization with overlap

---- Real-time Memory Report at c_bands before calling an iterative solver
          2373 MiB given to the printing process from OS
          1438 MiB allocation reported by mallinfo(arena+hblkhd)
         57672 MiB available memory on the node where the printing process lives
     GPU memory used/free/total (MiB): 2216 / 14064 / 16280
------------------
     ethr =  3.57E-06,  avg # of iterations =  2.0

     total cpu time spent up to now is      176.3 secs

     total energy              =    -844.12572932 Ry
     estimated scf accuracy    <       0.03072178 Ry

     total magnetization       =     3.13 Bohr mag/cell
     absolute magnetization    =     3.25 Bohr mag/cell
[tb_dev] Currently allocated     7.34E+00 Mbytes, locked:    0 /  11
[tb_pin] Currently allocated     0.00E+00 Mbytes, locked:    0 /   0

     iteration # 41     ecut=    60.00 Ry     beta= 0.40
     Davidson diagonalization with overlap

---- Real-time Memory Report at c_bands before calling an iterative solver
          2373 MiB given to the printing process from OS
          1440 MiB allocation reported by mallinfo(arena+hblkhd)
         57673 MiB available memory on the node where the printing process lives
     GPU memory used/free/total (MiB): 2216 / 14064 / 16280
------------------
     ethr =  3.57E-06,  avg # of iterations =  2.0

     total cpu time spent up to now is      180.4 secs

     total energy              =    -844.12043247 Ry
     estimated scf accuracy    <       0.05544007 Ry

     total magnetization       =     3.05 Bohr mag/cell
     absolute magnetization    =     3.20 Bohr mag/cell
[tb_dev] Currently allocated     7.34E+00 Mbytes, locked:    0 /  11
[tb_pin] Currently allocated     0.00E+00 Mbytes, locked:    0 /   0

     iteration # 42     ecut=    60.00 Ry     beta= 0.40
     Davidson diagonalization with overlap

---- Real-time Memory Report at c_bands before calling an iterative solver
          2376 MiB given to the printing process from OS
          1442 MiB allocation reported by mallinfo(arena+hblkhd)
         57671 MiB available memory on the node where the printing process lives
     GPU memory used/free/total (MiB): 2216 / 14064 / 16280
------------------
     ethr =  3.57E-06,  avg # of iterations =  2.0

     total cpu time spent up to now is      184.5 secs

     total energy              =    -844.12684687 Ry
     estimated scf accuracy    <       0.09918489 Ry

     total magnetization       =     3.01 Bohr mag/cell
     absolute magnetization    =     3.18 Bohr mag/cell
[tb_dev] Currently allocated     7.34E+00 Mbytes, locked:    0 /  11
[tb_pin] Currently allocated     0.00E+00 Mbytes, locked:    0 /   0

     iteration # 43     ecut=    60.00 Ry     beta= 0.40
     Davidson diagonalization with overlap

---- Real-time Memory Report at c_bands before calling an iterative solver
          2379 MiB given to the printing process from OS
          1444 MiB allocation reported by mallinfo(arena+hblkhd)
         57655 MiB available memory on the node where the printing process lives
     GPU memory used/free/total (MiB): 2216 / 14064 / 16280
------------------
     ethr =  3.57E-06,  avg # of iterations =  2.0

     total cpu time spent up to now is      188.6 secs

     total energy              =    -844.12601084 Ry
     estimated scf accuracy    <       0.04289936 Ry

     total magnetization       =     3.09 Bohr mag/cell
     absolute magnetization    =     3.22 Bohr mag/cell
[tb_dev] Currently allocated     7.34E+00 Mbytes, locked:    0 /  11
[tb_pin] Currently allocated     0.00E+00 Mbytes, locked:    0 /   0

     iteration # 44     ecut=    60.00 Ry     beta= 0.40
     Davidson diagonalization with overlap

---- Real-time Memory Report at c_bands before calling an iterative solver
          2379 MiB given to the printing process from OS
          1446 MiB allocation reported by mallinfo(arena+hblkhd)
         57654 MiB available memory on the node where the printing process lives
     GPU memory used/free/total (MiB): 2216 / 14064 / 16280
------------------
     ethr =  3.57E-06,  avg # of iterations =  1.0

     total cpu time spent up to now is      192.3 secs

     total energy              =    -844.12794710 Ry
     estimated scf accuracy    <       0.05367500 Ry

     total magnetization       =     3.06 Bohr mag/cell
     absolute magnetization    =     3.20 Bohr mag/cell
[tb_dev] Currently allocated     7.34E+00 Mbytes, locked:    0 /  11
[tb_pin] Currently allocated     0.00E+00 Mbytes, locked:    0 /   0

     iteration # 45     ecut=    60.00 Ry     beta= 0.40
     Davidson diagonalization with overlap

---- Real-time Memory Report at c_bands before calling an iterative solver
          2381 MiB given to the printing process from OS
          1448 MiB allocation reported by mallinfo(arena+hblkhd)
         57656 MiB available memory on the node where the printing process lives
     GPU memory used/free/total (MiB): 2216 / 14064 / 16280
------------------
     ethr =  3.57E-06,  avg # of iterations =  1.0

     total cpu time spent up to now is      195.9 secs

     total energy              =    -844.12819316 Ry
     estimated scf accuracy    <       0.03449413 Ry

     total magnetization       =     3.11 Bohr mag/cell
     absolute magnetization    =     3.24 Bohr mag/cell
[tb_dev] Currently allocated     7.34E+00 Mbytes, locked:    0 /  11
[tb_pin] Currently allocated     0.00E+00 Mbytes, locked:    0 /   0

     iteration # 46     ecut=    60.00 Ry     beta= 0.40
     Davidson diagonalization with overlap

---- Real-time Memory Report at c_bands before calling an iterative solver
          2384 MiB given to the printing process from OS
          1450 MiB allocation reported by mallinfo(arena+hblkhd)
         57655 MiB available memory on the node where the printing process lives
     GPU memory used/free/total (MiB): 2216 / 14064 / 16280
------------------
     ethr =  3.57E-06,  avg # of iterations =  1.0

     total cpu time spent up to now is      199.5 secs

     total energy              =    -844.12883481 Ry
     estimated scf accuracy    <       0.03222990 Ry

     total magnetization       =     3.12 Bohr mag/cell
     absolute magnetization    =     3.25 Bohr mag/cell
[tb_dev] Currently allocated     7.34E+00 Mbytes, locked:    0 /  11
[tb_pin] Currently allocated     0.00E+00 Mbytes, locked:    0 /   0

     iteration # 47     ecut=    60.00 Ry     beta= 0.40
     Davidson diagonalization with overlap

---- Real-time Memory Report at c_bands before calling an iterative solver
          2386 MiB given to the printing process from OS
          1452 MiB allocation reported by mallinfo(arena+hblkhd)
         57656 MiB available memory on the node where the printing process lives
     GPU memory used/free/total (MiB): 2216 / 14064 / 16280
------------------
     ethr =  3.57E-06,  avg # of iterations =  1.0

     total cpu time spent up to now is      203.2 secs

     total energy              =    -844.13124182 Ry
     estimated scf accuracy    <       0.02570661 Ry

     total magnetization       =     3.15 Bohr mag/cell
     absolute magnetization    =     3.27 Bohr mag/cell
[tb_dev] Currently allocated     7.34E+00 Mbytes, locked:    0 /  11
[tb_pin] Currently allocated     0.00E+00 Mbytes, locked:    0 /   0

     iteration # 48     ecut=    60.00 Ry     beta= 0.40
     Davidson diagonalization with overlap

---- Real-time Memory Report at c_bands before calling an iterative solver
          2387 MiB given to the printing process from OS
          1454 MiB allocation reported by mallinfo(arena+hblkhd)
         57651 MiB available memory on the node where the printing process lives
     GPU memory used/free/total (MiB): 2216 / 14064 / 16280
------------------
     ethr =  3.57E-06,  avg # of iterations =  2.5

     total cpu time spent up to now is      207.7 secs

     total energy              =    -844.13351355 Ry
     estimated scf accuracy    <       0.01401922 Ry

     total magnetization       =     2.65 Bohr mag/cell
     absolute magnetization    =     2.76 Bohr mag/cell
[tb_dev] Currently allocated     7.34E+00 Mbytes, locked:    0 /  11
[tb_pin] Currently allocated     0.00E+00 Mbytes, locked:    0 /   0

     iteration # 49     ecut=    60.00 Ry     beta= 0.40
     Davidson diagonalization with overlap

---- Real-time Memory Report at c_bands before calling an iterative solver
          2390 MiB given to the printing process from OS
          1456 MiB allocation reported by mallinfo(arena+hblkhd)
         57652 MiB available memory on the node where the printing process lives
     GPU memory used/free/total (MiB): 2216 / 14064 / 16280
------------------
     ethr =  3.57E-06,  avg # of iterations =  1.1

     total cpu time spent up to now is      211.4 secs

     total energy              =    -844.13088131 Ry
     estimated scf accuracy    <       0.02345925 Ry

     total magnetization       =     2.33 Bohr mag/cell
     absolute magnetization    =     2.44 Bohr mag/cell
[tb_dev] Currently allocated     7.34E+00 Mbytes, locked:    0 /  11
[tb_pin] Currently allocated     0.00E+00 Mbytes, locked:    0 /   0

[...]
[tb_dev] Currently allocated     7.34E+00 Mbytes, locked:    0 /  11
[tb_pin] Currently allocated     0.00E+00 Mbytes, locked:    0 /   0

     iteration # 65     ecut=    60.00 Ry     beta= 0.40
     Davidson diagonalization with overlap

---- Real-time Memory Report at c_bands before calling an iterative solver
          2425 MiB given to the printing process from OS
          1512 MiB allocation reported by mallinfo(arena+hblkhd)
         57612 MiB available memory on the node where the printing process lives
     GPU memory used/free/total (MiB): 2216 / 14064 / 16280
------------------
     ethr =  3.57E-06,  avg # of iterations =  1.0

     total cpu time spent up to now is      272.8 secs

     total energy              =    -844.12862256 Ry
     estimated scf accuracy    <       0.02778436 Ry

     total magnetization       =     3.14 Bohr mag/cell
     absolute magnetization    =     3.26 Bohr mag/cell
[tb_dev] Currently allocated     7.34E+00 Mbytes, locked:    0 /  11
[tb_pin] Currently allocated     0.00E+00 Mbytes, locked:    0 /   0

     iteration # 66     ecut=    60.00 Ry     beta= 0.40
     Davidson diagonalization with overlap

---- Real-time Memory Report at c_bands before calling an iterative solver
          2428 MiB given to the printing process from OS
          1514 MiB allocation reported by mallinfo(arena+hblkhd)
         57608 MiB available memory on the node where the printing process lives
     GPU memory used/free/total (MiB): 2216 / 14064 / 16280
------------------
     ethr =  3.57E-06,  avg # of iterations =  1.0

     total cpu time spent up to now is      276.5 secs

     total energy              =    -844.12997490 Ry
     estimated scf accuracy    <       0.02737224 Ry

     total magnetization       =     3.14 Bohr mag/cell
     absolute magnetization    =     3.26 Bohr mag/cell
[tb_dev] Currently allocated     7.34E+00 Mbytes, locked:    0 /  11
[tb_pin] Currently allocated     0.00E+00 Mbytes, locked:    0 /   0

     iteration # 67     ecut=    60.00 Ry     beta= 0.40
     Davidson diagonalization with overlap

---- Real-time Memory Report at c_bands before calling an iterative solver
          2429 MiB given to the printing process from OS
          1515 MiB allocation reported by mallinfo(arena+hblkhd)
         57610 MiB available memory on the node where the printing process lives
     GPU memory used/free/total (MiB): 2216 / 14064 / 16280
------------------
     ethr =  3.57E-06,  avg # of iterations =  1.0

     total cpu time spent up to now is      280.1 secs

     total energy              =    -844.13011791 Ry
     estimated scf accuracy    <       0.01456138 Ry

     total magnetization       =     3.20 Bohr mag/cell
     absolute magnetization    =     3.31 Bohr mag/cell
[tb_dev] Currently allocated     7.34E+00 Mbytes, locked:    0 /  11
[tb_pin] Currently allocated     0.00E+00 Mbytes, locked:    0 /   0

     iteration # 68     ecut=    60.00 Ry     beta= 0.40
     Davidson diagonalization with overlap

---- Real-time Memory Report at c_bands before calling an iterative solver
          2431 MiB given to the printing process from OS
          1517 MiB allocation reported by mallinfo(arena+hblkhd)
         57606 MiB available memory on the node where the printing process lives
     GPU memory used/free/total (MiB): 2216 / 14064 / 16280
------------------
     ethr =  3.57E-06,  avg # of iterations =  1.0

     total cpu time spent up to now is      283.7 secs

     total energy              =    -844.12936903 Ry
     estimated scf accuracy    <       0.01380758 Ry

     total magnetization       =     3.20 Bohr mag/cell
     absolute magnetization    =     3.31 Bohr mag/cell
[tb_dev] Currently allocated     7.34E+00 Mbytes, locked:    0 /  11
[tb_pin] Currently allocated     0.00E+00 Mbytes, locked:    0 /   0

     iteration # 69     ecut=    60.00 Ry     beta= 0.40
     Davidson diagonalization with overlap

---- Real-time Memory Report at c_bands before calling an iterative solver
          2434 MiB given to the printing process from OS
          1519 MiB allocation reported by mallinfo(arena+hblkhd)
         57606 MiB available memory on the node where the printing process lives
     GPU memory used/free/total (MiB): 2216 / 14064 / 16280
------------------
     ethr =  3.57E-06,  avg # of iterations =  1.0

     total cpu time spent up to now is      287.4 secs

     total energy              =    -844.13144186 Ry
     estimated scf accuracy    <       0.02053143 Ry

     total magnetization       =     3.17 Bohr mag/cell
     absolute magnetization    =     3.29 Bohr mag/cell
[tb_dev] Currently allocated     7.34E+00 Mbytes, locked:    0 /  11
[tb_pin] Currently allocated     0.00E+00 Mbytes, locked:    0 /   0

     iteration # 70     ecut=    60.00 Ry     beta= 0.40
     Davidson diagonalization with overlap

---- Real-time Memory Report at c_bands before calling an iterative solver
          2435 MiB given to the printing process from OS
          1521 MiB allocation reported by mallinfo(arena+hblkhd)
         57604 MiB available memory on the node where the printing process lives
     GPU memory used/free/total (MiB): 2216 / 14064 / 16280
------------------
     ethr =  3.57E-06,  avg # of iterations =  2.0

     total cpu time spent up to now is      291.6 secs

     total energy              =    -844.13301995 Ry
     estimated scf accuracy    <       0.01224025 Ry

     total magnetization       =     2.78 Bohr mag/cell
     absolute magnetization    =     2.89 Bohr mag/cell
[tb_dev] Currently allocated     7.34E+00 Mbytes, locked:    0 /  11
[tb_pin] Currently allocated     0.00E+00 Mbytes, locked:    0 /   0

     iteration # 71     ecut=    60.00 Ry     beta= 0.40
     Davidson diagonalization with overlap

---- Real-time Memory Report at c_bands before calling an iterative solver
          2437 MiB given to the printing process from OS
          1523 MiB allocation reported by mallinfo(arena+hblkhd)
         57603 MiB available memory on the node where the printing process lives
     GPU memory used/free/total (MiB): 2216 / 14064 / 16280
------------------
     ethr =  3.57E-06,  avg # of iterations =  1.0

     total cpu time spent up to now is      295.2 secs

     total energy              =    -844.13261033 Ry
     estimated scf accuracy    <       0.01880656 Ry

     total magnetization       =     2.51 Bohr mag/cell
     absolute magnetization    =     2.62 Bohr mag/cell
[tb_dev] Currently allocated     7.34E+00 Mbytes, locked:    0 /  11
[tb_pin] Currently allocated     0.00E+00 Mbytes, locked:    0 /   0

     iteration # 72     ecut=    60.00 Ry     beta= 0.40
     Davidson diagonalization with overlap

---- Real-time Memory Report at c_bands before calling an iterative solver
          2440 MiB given to the printing process from OS
          1525 MiB allocation reported by mallinfo(arena+hblkhd)
         57599 MiB available memory on the node where the printing process lives
     GPU memory used/free/total (MiB): 2216 / 14064 / 16280
------------------
     ethr =  3.57E-06,  avg # of iterations =  1.0

     total cpu time spent up to now is      298.9 secs

     total energy              =    -844.13004486 Ry
     estimated scf accuracy    <       0.01363847 Ry

     total magnetization       =     2.70 Bohr mag/cell
     absolute magnetization    =     2.80 Bohr mag/cell
[tb_dev] Currently allocated     7.34E+00 Mbytes, locked:    0 /  11
[tb_pin] Currently allocated     0.00E+00 Mbytes, locked:    0 /   0

     iteration # 73     ecut=    60.00 Ry     beta= 0.40
     Davidson diagonalization with overlap

---- Real-time Memory Report at c_bands before calling an iterative solver
          2441 MiB given to the printing process from OS
          1527 MiB allocation reported by mallinfo(arena+hblkhd)
         57599 MiB available memory on the node where the printing process lives
     GPU memory used/free/total (MiB): 2216 / 14064 / 16280
------------------
     ethr =  3.57E-06,  avg # of iterations =  2.0

     total cpu time spent up to now is      303.0 secs

     total energy              =    -844.13153814 Ry
     estimated scf accuracy    <       0.00773156 Ry

     total magnetization       =     3.16 Bohr mag/cell
     absolute magnetization    =     3.26 Bohr mag/cell
[tb_dev] Currently allocated     7.34E+00 Mbytes, locked:    0 /  11
[tb_pin] Currently allocated     0.00E+00 Mbytes, locked:    0 /   0

     iteration # 74     ecut=    60.00 Ry     beta= 0.40
     Davidson diagonalization with overlap

---- Real-time Memory Report at c_bands before calling an iterative solver
          2443 MiB given to the printing process from OS
          1529 MiB allocation reported by mallinfo(arena+hblkhd)
         57595 MiB available memory on the node where the printing process lives
     GPU memory used/free/total (MiB): 2216 / 14064 / 16280
------------------
     ethr =  3.57E-06,  avg # of iterations =  1.0

     total cpu time spent up to now is      306.6 secs

     total energy              =    -844.13127043 Ry
     estimated scf accuracy    <       0.00762898 Ry

     total magnetization       =     3.07 Bohr mag/cell
     absolute magnetization    =     3.17 Bohr mag/cell
[tb_dev] Currently allocated     7.34E+00 Mbytes, locked:    0 /  11
[tb_pin] Currently allocated     0.00E+00 Mbytes, locked:    0 /   0

     iteration # 75     ecut=    60.00 Ry     beta= 0.40
     Davidson diagonalization with overlap

---- Real-time Memory Report at c_bands before calling an iterative solver
          2445 MiB given to the printing process from OS
          1531 MiB allocation reported by mallinfo(arena+hblkhd)
         57596 MiB available memory on the node where the printing process lives
     GPU memory used/free/total (MiB): 2216 / 14064 / 16280
------------------
     ethr =  3.57E-06,  avg # of iterations =  1.0

     total cpu time spent up to now is      310.2 secs

     total energy              =    -844.13156341 Ry
     estimated scf accuracy    <       0.00777129 Ry

     total magnetization       =     3.13 Bohr mag/cell
     absolute magnetization    =     3.24 Bohr mag/cell
[tb_dev] Currently allocated     7.34E+00 Mbytes, locked:    0 /  11
[tb_pin] Currently allocated     0.00E+00 Mbytes, locked:    0 /   0

     iteration # 76     ecut=    60.00 Ry     beta= 0.40
     Davidson diagonalization with overlap

---- Real-time Memory Report at c_bands before calling an iterative solver
          2447 MiB given to the printing process from OS
          1533 MiB allocation reported by mallinfo(arena+hblkhd)
         57593 MiB available memory on the node where the printing process lives
     GPU memory used/free/total (MiB): 2216 / 14064 / 16280
------------------
     ethr =  3.57E-06,  avg # of iterations =  1.0

     total cpu time spent up to now is      313.9 secs

     total energy              =    -844.13189341 Ry
     estimated scf accuracy    <       0.00743273 Ry

     total magnetization       =     3.07 Bohr mag/cell
     absolute magnetization    =     3.17 Bohr mag/cell
[tb_dev] Currently allocated     7.34E+00 Mbytes, locked:    0 /  11
[tb_pin] Currently allocated     0.00E+00 Mbytes, locked:    0 /   0

     iteration # 77     ecut=    60.00 Ry     beta= 0.40
     Davidson diagonalization with overlap

---- Real-time Memory Report at c_bands before calling an iterative solver
          2453 MiB given to the printing process from OS
          1535 MiB allocation reported by mallinfo(arena+hblkhd)
         57583 MiB available memory on the node where the printing process lives
     GPU memory used/free/total (MiB): 2216 / 14064 / 16280
------------------
     ethr =  3.57E-06,  avg # of iterations =  1.0

     total cpu time spent up to now is      317.5 secs

     total energy              =    -844.12992005 Ry
     estimated scf accuracy    <       0.00829640 Ry

     total magnetization       =     2.97 Bohr mag/cell
     absolute magnetization    =     3.07 Bohr mag/cell
[tb_dev] Currently allocated     7.34E+00 Mbytes, locked:    0 /  11
[tb_pin] Currently allocated     0.00E+00 Mbytes, locked:    0 /   0

     iteration # 78     ecut=    60.00 Ry     beta= 0.40
     Davidson diagonalization with overlap

---- Real-time Memory Report at c_bands before calling an iterative solver
          2455 MiB given to the printing process from OS
          1537 MiB allocation reported by mallinfo(arena+hblkhd)
         57585 MiB available memory on the node where the printing process lives
     GPU memory used/free/total (MiB): 2216 / 14064 / 16280
------------------
     ethr =  3.57E-06,  avg # of iterations =  2.0

     total cpu time spent up to now is      321.6 secs

     total energy              =    -844.13105754 Ry
     estimated scf accuracy    <       0.01096101 Ry

     total magnetization       =     3.20 Bohr mag/cell
     absolute magnetization    =     3.31 Bohr mag/cell
[tb_dev] Currently allocated     7.34E+00 Mbytes, locked:    0 /  11
[tb_pin] Currently allocated     0.00E+00 Mbytes, locked:    0 /   0

     iteration # 79     ecut=    60.00 Ry     beta= 0.40
     Davidson diagonalization with overlap

---- Real-time Memory Report at c_bands before calling an iterative solver
          2458 MiB given to the printing process from OS
          1539 MiB allocation reported by mallinfo(arena+hblkhd)
         57584 MiB available memory on the node where the printing process lives
     GPU memory used/free/total (MiB): 2216 / 14064 / 16280
------------------
     ethr =  3.57E-06,  avg # of iterations =  1.0

     total cpu time spent up to now is      325.3 secs

     total energy              =    -844.13118438 Ry
     estimated scf accuracy    <       0.00705502 Ry

     total magnetization       =     3.16 Bohr mag/cell
     absolute magnetization    =     3.26 Bohr mag/cell
[tb_dev] Currently allocated     7.34E+00 Mbytes, locked:    0 /  11
[tb_pin] Currently allocated     0.00E+00 Mbytes, locked:    0 /   0

     iteration # 80     ecut=    60.00 Ry     beta= 0.40
     Davidson diagonalization with overlap

---- Real-time Memory Report at c_bands before calling an iterative solver
          2459 MiB given to the printing process from OS
          1541 MiB allocation reported by mallinfo(arena+hblkhd)
         57580 MiB available memory on the node where the printing process lives
     GPU memory used/free/total (MiB): 2216 / 14064 / 16280
------------------
     ethr =  3.57E-06,  avg # of iterations =  1.0

     total cpu time spent up to now is      329.0 secs

     total energy              =    -844.12971943 Ry
     estimated scf accuracy    <       0.00666342 Ry

     total magnetization       =     3.15 Bohr mag/cell
     absolute magnetization    =     3.25 Bohr mag/cell

     End of self-consistent calculation

     convergence NOT achieved after  80 iterations: stopping

     Writing config to output data dir ./out/aiida.save/
 
     init_run     :     22.88s CPU      5.36s WALL (       1 calls)
     electrons    :    797.63s CPU    322.81s WALL (       1 calls)

     Called by init_run:
     wfcinit      :      1.99s CPU      2.71s WALL (       1 calls)
                                        2.71s GPU  (       1 calls)
     wfcinit:atom :      0.03s CPU      0.06s WALL (      70 calls)
                                        0.06s GPU  (      70 calls)
     wfcinit:wfcr :      1.22s CPU      1.71s WALL (      70 calls)
                                        1.71s GPU  (      70 calls)
     potinit      :      8.16s CPU      0.77s WALL (       1 calls)
     hinit0       :      7.33s CPU      1.11s WALL (       1 calls)

     Called by electrons:
     c_bands      :    317.14s CPU    230.22s WALL (      80 calls)
     sum_band     :     48.56s CPU     52.97s WALL (      80 calls)
     v_of_rho     :     34.54s CPU      3.11s WALL (      81 calls)
     v_h          :      4.97s CPU      0.44s WALL (      81 calls)
     v_xc         :     29.56s CPU      2.67s WALL (      81 calls)
     newd         :     53.39s CPU      5.16s WALL (      81 calls)
                                        5.16s GPU  (      81 calls)
     PAW_pot      :    299.38s CPU     27.12s WALL (      81 calls)
     mix_rho      :     38.41s CPU      3.80s WALL (      80 calls)

     Called by c_bands:
     init_us_2    :     18.87s CPU     17.07s WALL (   11270 calls)
     init_us_2:gp :     18.63s CPU     16.88s WALL (   11270 calls)
     cegterg      :    262.12s CPU    193.98s WALL (    5600 calls)

     Called by sum_band:
     sum_band:wei :      0.22s CPU      0.23s WALL (      80 calls)
                                        0.23s GPU  (      80 calls)
     sum_band:loo :     40.85s CPU     45.04s WALL (      80 calls)
                                       45.04s GPU  (      80 calls)
     sum_band:buf :     11.56s CPU     12.04s WALL (    5600 calls)
                                       12.01s GPU  (    5600 calls)
     sum_band:ini :      7.03s CPU      8.43s WALL (    5600 calls)
                                        8.40s GPU  (    5600 calls)
     sum_band:cal :      0.16s CPU      1.50s WALL (    5600 calls)
                                        1.25s GPU  (    5600 calls)
     sum_band:bec :      1.41s CPU      1.53s WALL (    5600 calls)
                                        1.49s GPU  (    5600 calls)
     addusdens    :      5.33s CPU      5.53s WALL (      80 calls)
                                        5.52s GPU  (      80 calls)
     addusd:skk   :      0.03s CPU      0.03s WALL (     240 calls)
                                        0.03s GPU  (     240 calls)

     Called by *egterg:
     cdiaghg      :     85.66s CPU     69.87s WALL (   15666 calls)
                                       69.76s GPU  (   15666 calls)
     cegterg:over :      4.68s CPU      3.51s WALL (   10066 calls)
     cegterg:upda :      7.43s CPU      5.65s WALL (   10066 calls)
     cegterg:last :      3.23s CPU      2.41s WALL (    8476 calls)
     h_psi        :    146.25s CPU    102.88s WALL (   15736 calls)
                                      102.66s GPU  (   15736 calls)
     s_psi        :      3.09s CPU      4.67s WALL (   15736 calls)
                                        4.24s GPU  (   15736 calls)
     g_psi        :      0.10s CPU      0.50s WALL (   10066 calls)
                                        0.43s GPU  (   10066 calls)

     Called by h_psi:
     h_psi:calbec :      0.73s CPU      3.42s WALL (   15736 calls)
                                        3.32s GPU  (   15736 calls)
     vloc_psi     :    130.61s CPU     92.15s WALL (   15736 calls)
                                       92.05s GPU  (   15736 calls)
     add_vuspsi   :      5.24s CPU      5.84s WALL (   15736 calls)
                                        5.73s GPU  (   15736 calls)

     General routines
     calbec       :      0.63s CPU      0.48s WALL (   21336 calls)
     fft          :      2.44s CPU      0.51s WALL (    2023 calls)
                                        0.41s GPU  (    1861 calls)
     ffts         :      0.07s CPU      0.05s WALL (     322 calls)
                                        0.01s GPU  (     160 calls)
     fftw         :      3.16s CPU     75.55s WALL (  123378 calls)
                                       74.79s GPU  (  123378 calls)
     interpolate  :      4.64s CPU      0.41s WALL (     162 calls)
     davcio       :      0.57s CPU      0.34s WALL (      88 calls)
 
     Parallel routines

     PAW routines
     PAW_pot      :    299.38s CPU     27.12s WALL (      81 calls)
     PAW_symme    :      0.75s CPU      0.12s WALL (     161 calls)
 
     PWSCF        :  13m44.17s CPU   5m29.51s WALL

 
   This run was terminated on:  18: 8:23  22Oct2023            

=------------------------------------------------------------------------------=
   JOB DONE.
=------------------------------------------------------------------------------=
