
     Program PWSCF v.7.2 starts on 22Oct2023 at 18:13: 6 

     This program is part of the open-source Quantum ESPRESSO suite
     for quantum simulation of materials; please cite
         "P. Giannozzi et al., J. Phys.:Condens. Matter 21 395502 (2009);
         "P. Giannozzi et al., J. Phys.:Condens. Matter 29 465901 (2017);
         "P. Giannozzi et al., J. Chem. Phys. 152 154105 (2020);
          URL http://www.quantum-espresso.org", 
     in publications or presentations arising from this work. More details at
     http://www.quantum-espresso.org/quote

     Parallel version (MPI & OpenMP), running on      12 processor cores
     Number of MPI processes:                 1
     Threads/MPI process:                    12

     MPI processes distributed on     1 nodes
     40259 MiB available memory on the printing compute node when the environment starts
 
     Reading input from aiida.in

     Current dimensions of program PWSCF are:
     Max number of different atomic species (ntypx) = 10
     Max number of k-points (npk) =  40000
     Max angular momentum in pseudopotentials (lmaxx) =  4
     file O.pbesol-n-kjpaw_psl.0.1.UPF: wavefunction(s)  2P renormalized
     Message from routine setup:
     using ibrav=0 with symmetry is DISCOURAGED, use correct ibrav instead
 
     Subspace diagonalization in iterative solution of the eigenvalue problem:
     a serial algorithm will be used

 
     G-vector sticks info
     --------------------
     sticks:   dense  smooth     PW     G-vecs:    dense   smooth      PW
     Sum        4075    2033    585               178775    63167    9701
 
     Using Slab Decomposition
 


     bravais-lattice index     =            0
     lattice parameter (alat)  =      11.7981  a.u.
     unit-cell volume          =    1322.6752 (a.u.)^3
     number of atoms/cell      =           12
     number of atomic types    =            3
     number of electrons       =       118.00
     number of Kohn-Sham states=           71
     kinetic-energy cutoff     =      50.0000  Ry
     charge density cutoff     =     400.0000  Ry
     scf convergence threshold =      2.4E-09
     mixing beta               =       0.4000
     number of iterations used =            8  plain     mixing
     Exchange-correlation= SLA  PW   PSX  PSC
                           (   1   4  10   8   0   0   0)

     GPU acceleration is ACTIVE.


     GPU used by master process:

        Device Number: 0
        Device name: Tesla P100-PCIE-16GB
        Compute capability : 60
        Ratio of single to double precision performance  : 2
        Memory Clock Rate (KHz): 715000
        Memory Bus Width (bits): 4096
        Peak Memory Bandwidth (GB/s): 732.16

     celldm(1)=  11.798084  celldm(2)=   0.000000  celldm(3)=   0.000000
     celldm(4)=   0.000000  celldm(5)=   0.000000  celldm(6)=   0.000000

     crystal axes: (cart. coord. in units of alat)
               a(1) = (   0.547941   0.316354   0.774390 )  
               a(2) = (  -0.547941   0.316354   0.774390 )  
               a(3) = (   0.000000  -0.632708   0.774390 )  

     reciprocal axes: (cart. coord. in units 2 pi/alat)
               b(1) = (  0.912506  0.526836  0.430446 )  
               b(2) = ( -0.912506  0.526836  0.430446 )  
               b(3) = ( -0.000000 -1.053672  0.430446 )  


     PseudoPot. # 1 for Cl read from file:
     ./pseudo/cl_pbesol_v1.4.uspp.F.UPF
     MD5 check sum: ed6bbcf06f19043c0df9f6394706ff8f
     Pseudo is Ultrasoft + core correction, Zval =  7.0
     Generated by new atomic code, or converted to UPF format
     Using radial grid of  909 points,  6 beta functions with: 
                l(1) =   0
                l(2) =   0
                l(3) =   1
                l(4) =   1
                l(5) =   2
                l(6) =   2
     Q(r) pseudized with  8 coefficients,  rinner =    1.300   1.300   1.300
                                                       1.300   1.300

     PseudoPot. # 2 for Co read from file:
     ./pseudo/co_pbesol_v1.2.uspp.F.UPF
     MD5 check sum: 3b4cd4e7cc7df4da9fdede0fd33e2193
     Pseudo is Ultrasoft + core correction, Zval = 17.0
     Generated by new atomic code, or converted to UPF format
     Using radial grid of  863 points,  6 beta functions with: 
                l(1) =   0
                l(2) =   0
                l(3) =   1
                l(4) =   1
                l(5) =   2
                l(6) =   2
     Q(r) pseudized with  8 coefficients,  rinner =    1.200   1.200   1.200
                                                       1.200   1.200

     PseudoPot. # 3 for O  read from file:
     ./pseudo/O.pbesol-n-kjpaw_psl.0.1.UPF
     MD5 check sum: 81d73d1479e654e5638b0319f0d6c2c7
     Pseudo is Projector augmented-wave + core cor, Zval =  6.0
     Generated using "atomic" code by A. Dal Corso  v.6.0 svn rev. 13079
     Shape of augmentation charge: BESSEL
     Using radial grid of 1095 points,  4 beta functions with: 
                l(1) =   0
                l(2) =   0
                l(3) =   1
                l(4) =   1
     Q(r) pseudized with 0 coefficients 


     atomic species   valence    mass     pseudopotential
        Cl             7.00    35.45300     Cl( 1.00)
        Co            17.00    58.93319     Co( 1.00)
        O              6.00    15.99940     O ( 1.00)

     Starting magnetic structure 
     atomic species   magnetization
        Cl           0.100
        Co           0.294
        O            0.100

     12 Sym. Ops., with inversion, found


                                    s                        frac. trans.

      isym =  1     identity                                     

 cryst.   s( 1) = (     1          0          0      )
                  (     0          1          0      )
                  (     0          0          1      )

 cart.    s( 1) = (  1.0000000  0.0000000  0.0000000 )
                  ( -0.0000000  1.0000000 -0.0000000 )
                  ( -0.0000000  0.0000000  1.0000000 )


      isym =  2     180 deg rotation - cart. axis [1,0,0]        

 cryst.   s( 2) = (     0         -1          0      )
                  (    -1          0          0      )
                  (     0          0         -1      )

 cart.    s( 2) = (  1.0000000 -0.0000000 -0.0000000 )
                  ( -0.0000000 -1.0000000  0.0000000 )
                  ( -0.0000000 -0.0000000 -1.0000000 )


      isym =  3     120 deg rotation - cryst. axis [0,0,1]       

 cryst.   s( 3) = (     0          1          0      )
                  (     0          0          1      )
                  (     1          0          0      )

 cart.    s( 3) = ( -0.5000000 -0.8660254  0.0000000 )
                  (  0.8660254 -0.5000000 -0.0000000 )
                  ( -0.0000000 -0.0000000  1.0000000 )


      isym =  4     120 deg rotation - cryst. axis [0,0,-1]      

 cryst.   s( 4) = (     0          0          1      )
                  (     1          0          0      )
                  (     0          1          0      )

 cart.    s( 4) = ( -0.5000000  0.8660254  0.0000000 )
                  ( -0.8660254 -0.5000000 -0.0000000 )
                  (  0.0000000  0.0000000  1.0000000 )


      isym =  5     180 deg rotation - cryst. axis [0,1,0]       

 cryst.   s( 5) = (    -1          0          0      )
                  (     0          0         -1      )
                  (     0         -1          0      )

 cart.    s( 5) = ( -0.5000000 -0.8660254 -0.0000000 )
                  ( -0.8660254  0.5000000  0.0000000 )
                  (  0.0000000 -0.0000000 -1.0000000 )


      isym =  6     180 deg rotation - cryst. axis [1,1,0]       

 cryst.   s( 6) = (     0          0         -1      )
                  (     0         -1          0      )
                  (    -1          0          0      )

 cart.    s( 6) = ( -0.5000000  0.8660254 -0.0000000 )
                  (  0.8660254  0.5000000  0.0000000 )
                  ( -0.0000000  0.0000000 -1.0000000 )


      isym =  7     inversion                                    

 cryst.   s( 7) = (    -1          0          0      )
                  (     0         -1          0      )
                  (     0          0         -1      )

 cart.    s( 7) = ( -1.0000000 -0.0000000 -0.0000000 )
                  (  0.0000000 -1.0000000  0.0000000 )
                  (  0.0000000 -0.0000000 -1.0000000 )


      isym =  8     inv. 180 deg rotation - cart. axis [1,0,0]   

 cryst.   s( 8) = (     0          1          0      )
                  (     1          0          0      )
                  (     0          0          1      )

 cart.    s( 8) = ( -1.0000000  0.0000000  0.0000000 )
                  (  0.0000000  1.0000000 -0.0000000 )
                  (  0.0000000  0.0000000  1.0000000 )


      isym =  9     inv. 120 deg rotation - cryst. axis [0,0,1]  

 cryst.   s( 9) = (     0         -1          0      )
                  (     0          0         -1      )
                  (    -1          0          0      )

 cart.    s( 9) = (  0.5000000  0.8660254 -0.0000000 )
                  ( -0.8660254  0.5000000  0.0000000 )
                  (  0.0000000  0.0000000 -1.0000000 )


      isym = 10     inv. 120 deg rotation - cryst. axis [0,0,-1] 

 cryst.   s(10) = (     0          0         -1      )
                  (    -1          0          0      )
                  (     0         -1          0      )

 cart.    s(10) = (  0.5000000 -0.8660254 -0.0000000 )
                  (  0.8660254  0.5000000  0.0000000 )
                  ( -0.0000000 -0.0000000 -1.0000000 )


      isym = 11     inv. 180 deg rotation - cryst. axis [0,1,0]  

 cryst.   s(11) = (     1          0          0      )
                  (     0          0          1      )
                  (     0          1          0      )

 cart.    s(11) = (  0.5000000  0.8660254  0.0000000 )
                  (  0.8660254 -0.5000000 -0.0000000 )
                  ( -0.0000000  0.0000000  1.0000000 )


      isym = 12     inv. 180 deg rotation - cryst. axis [1,1,0]  

 cryst.   s(12) = (     0          0          1      )
                  (     0          1          0      )
                  (     1          0          0      )

 cart.    s(12) = (  0.5000000 -0.8660254  0.0000000 )
                  ( -0.8660254 -0.5000000 -0.0000000 )
                  (  0.0000000 -0.0000000  1.0000000 )


   Cartesian axes

     site n.     atom                  positions (alat units)
         1           Co  tau(   1) = (  -0.2739707   0.7908853   1.9359757  )
         2           Co  tau(   2) = (   0.5479414   0.6327082   0.3871951  )
         3           Co  tau(   3) = (   0.2739707   0.1581771   0.3871951  )
         4           Co  tau(   4) = (   0.0000000   0.0000000   0.0000000  )
         5           Cl  tau(   5) = (  -0.0000000   0.6327082   0.8917879  )
         6           Cl  tau(   6) = (  -0.0000000   0.6327082   2.2057733  )
         7           O   tau(   7) = (  -0.0000000   0.2531466   0.2251927  )
         8           O   tau(   8) = (  -0.3287100   0.8224890   0.2251927  )
         9           O   tau(   9) = (   0.7671727   0.4429274   0.5491976  )
        10           O   tau(  10) = (   0.3287100   0.4429274   0.5491976  )
        11           O   tau(  11) = (   0.5479414   0.0632076   0.5491976  )
        12           O   tau(  12) = (   0.3287100   0.8224890   0.2251927  )

   Crystallographic axes

     site n.     atom                  positions (cryst. coord.)
         1           Co  tau(   1) = (  1.0000000  1.5000000  0.0000000  )
         2           Co  tau(   2) = (  1.0000000  0.0000000 -0.5000000  )
         3           Co  tau(   3) = (  0.5000000  0.0000000  0.0000000  )
         4           Co  tau(   4) = (  0.0000000  0.0000000  0.0000000  )
         5           Cl  tau(   5) = (  0.7172000  0.7172000 -0.2828000  )
         6           Cl  tau(   6) = (  1.2828000  1.2828000  0.2828000  )
         7           O   tau(   7) = (  0.2303000  0.2303000 -0.1698000  )
         8           O   tau(   8) = (  0.2303000  0.8302000 -0.7697000  )
         9           O   tau(   9) = (  1.1698000 -0.2303000 -0.2303000  )
        10           O   tau(  10) = (  0.7697000  0.1698000 -0.2303000  )
        11           O   tau(  11) = (  0.7697000 -0.2303000  0.1698000  )
        12           O   tau(  12) = (  0.8302000  0.2303000 -0.7697000  )

     number of k points=    65  Marzari-Vanderbilt smearing, width (Ry)=  0.0100
                       cart. coord. in units 2pi/alat
        k(    1) = (   0.0000000   0.0000000   0.0000000), wk =   0.0019531
        k(    2) = (  -0.0000000  -0.1317089   0.0538058), wk =   0.0117188
        k(    3) = (  -0.0000000  -0.2634179   0.1076115), wk =   0.0117188
        k(    4) = (  -0.0000000  -0.3951268   0.1614173), wk =   0.0117188
        k(    5) = (   0.0000000   0.5268358  -0.2152231), wk =   0.0058594
        k(    6) = (  -0.1140633  -0.0658545   0.1076115), wk =   0.0117188
        k(    7) = (  -0.1140633  -0.1975634   0.1614173), wk =   0.0234375
        k(    8) = (  -0.1140633  -0.3292724   0.2152231), wk =   0.0234375
        k(    9) = (  -0.1140633   0.5926903  -0.1614173), wk =   0.0234375
        k(   10) = (  -0.1140633   0.4609813  -0.1076115), wk =   0.0234375
        k(   11) = (  -0.1140633   0.3292724  -0.0538058), wk =   0.0234375
        k(   12) = (  -0.1140633   0.1975634   0.0000000), wk =   0.0117188
        k(   13) = (  -0.2281266  -0.1317089   0.2152231), wk =   0.0117188
        k(   14) = (  -0.2281266  -0.2634179   0.2690289), wk =   0.0234375
        k(   15) = (  -0.2281266   0.6585447  -0.1076115), wk =   0.0234375
        k(   16) = (  -0.2281266   0.5268358  -0.0538058), wk =   0.0234375
        k(   17) = (  -0.2281266   0.3951268   0.0000000), wk =   0.0117188
        k(   18) = (  -0.3421899  -0.1975634   0.3228346), wk =   0.0117188
        k(   19) = (  -0.3421899   0.7243992  -0.0538058), wk =   0.0234375
        k(   20) = (  -0.3421899   0.5926903  -0.0000000), wk =   0.0117188
        k(   21) = (   0.4562532   0.2634179  -0.4304462), wk =   0.0058594
        k(   22) = (  -0.0000000   0.0000000   0.1614173), wk =   0.0039063
        k(   23) = (  -0.0000000  -0.1317089   0.2152231), wk =   0.0117188
        k(   24) = (  -0.0000000  -0.2634179   0.2690289), wk =   0.0117188
        k(   25) = (   0.0000000   0.6585447  -0.1076115), wk =   0.0117188
        k(   26) = (   0.0000000   0.5268358  -0.0538058), wk =   0.0117188
        k(   27) = (   0.0000000   0.3951268   0.0000000), wk =   0.0117188
        k(   28) = (   0.0000000   0.2634179   0.0538058), wk =   0.0117188
        k(   29) = (  -0.1140633  -0.0658545   0.2690289), wk =   0.0117188
        k(   30) = (  -0.1140633  -0.1975634   0.3228346), wk =   0.0234375
        k(   31) = (  -0.1140633   0.7243992  -0.0538058), wk =   0.0234375
        k(   32) = (  -0.1140633   0.5926903  -0.0000000), wk =   0.0234375
        k(   33) = (  -0.1140633   0.4609813   0.0538058), wk =   0.0234375
        k(   34) = (  -0.1140633   0.3292724   0.1076115), wk =   0.0234375
        k(   35) = (  -0.2281266  -0.1317089   0.3766404), wk =   0.0117188
        k(   36) = (  -0.2281266   0.7902537   0.0000000), wk =   0.0234375
        k(   37) = (  -0.2281266   0.6585447   0.0538058), wk =   0.0234375
        k(   38) = (  -0.2281266   0.5268358   0.1076115), wk =   0.0234375
        k(   39) = (  -0.2281266   0.3951268   0.1614173), wk =   0.0234375
        k(   40) = (   0.5703165   0.3292724  -0.3766404), wk =   0.0117188
        k(   41) = (   0.5703165   0.1975634  -0.3228346), wk =   0.0234375
        k(   42) = (   0.5703165   0.0658545  -0.2690289), wk =   0.0234375
        k(   43) = (   0.5703165  -0.0658545  -0.2152231), wk =   0.0117188
        k(   44) = (   0.4562532   0.2634179  -0.2690289), wk =   0.0117188
        k(   45) = (   0.4562532   0.1317089  -0.2152231), wk =   0.0234375
        k(   46) = (   0.3421899   0.1975634  -0.1614173), wk =   0.0117188
        k(   47) = (  -0.0000000   0.0000000   0.3228346), wk =   0.0039063
        k(   48) = (  -0.0000000  -0.1317089   0.3766404), wk =   0.0117188
        k(   49) = (   0.0000000   0.7902537   0.0000000), wk =   0.0117188
        k(   50) = (   0.0000000   0.6585447   0.0538058), wk =   0.0117188
        k(   51) = (   0.0000000   0.5268358   0.1076115), wk =   0.0117188
        k(   52) = (  -0.1140633  -0.0658545   0.4304462), wk =   0.0117188
        k(   53) = (  -0.1140633   0.8561082   0.0538058), wk =   0.0234375
        k(   54) = (  -0.1140633   0.7243992   0.1076115), wk =   0.0234375
        k(   55) = (  -0.1140633   0.5926903   0.1614173), wk =   0.0234375
        k(   56) = (   0.6843798   0.3951268  -0.3228346), wk =   0.0117188
        k(   57) = (   0.6843798   0.2634179  -0.2690289), wk =   0.0234375
        k(   58) = (   0.6843798   0.1317089  -0.2152231), wk =   0.0117188
        k(   59) = (   0.5703165   0.3292724  -0.2152231), wk =   0.0117188
        k(   60) = (   0.0000000   0.0000000   0.4842519), wk =   0.0039063
        k(   61) = (   0.0000000   0.9219626   0.1076115), wk =   0.0117188
        k(   62) = (   0.0000000   0.7902537   0.1614173), wk =   0.0117188
        k(   63) = (   0.7984431   0.4609813  -0.2690289), wk =   0.0117188
        k(   64) = (   0.7984431   0.3292724  -0.2152231), wk =   0.0117188
        k(   65) = (   0.0000000   0.0000000  -0.6456693), wk =   0.0019531

                       cryst. coord.
        k(    1) = (   0.0000000   0.0000000   0.0000000), wk =   0.0019531
        k(    2) = (   0.0000000   0.0000000   0.1250000), wk =   0.0117188
        k(    3) = (   0.0000000   0.0000000   0.2500000), wk =   0.0117188
        k(    4) = (  -0.0000000  -0.0000000   0.3750000), wk =   0.0117188
        k(    5) = (  -0.0000000  -0.0000000  -0.5000000), wk =   0.0058594
        k(    6) = (   0.0000000   0.1250000   0.1250000), wk =   0.0117188
        k(    7) = (  -0.0000000   0.1250000   0.2500000), wk =   0.0234375
        k(    8) = (   0.0000000   0.1250000   0.3750000), wk =   0.0234375
        k(    9) = (  -0.0000000   0.1250000  -0.5000000), wk =   0.0234375
        k(   10) = (  -0.0000000   0.1250000  -0.3750000), wk =   0.0234375
        k(   11) = (  -0.0000000   0.1250000  -0.2500000), wk =   0.0234375
        k(   12) = (   0.0000000   0.1250000  -0.1250000), wk =   0.0117188
        k(   13) = (   0.0000000   0.2500000   0.2500000), wk =   0.0117188
        k(   14) = (  -0.0000000   0.2500000   0.3750000), wk =   0.0234375
        k(   15) = (  -0.0000000   0.2500000  -0.5000000), wk =   0.0234375
        k(   16) = (  -0.0000000   0.2500000  -0.3750000), wk =   0.0234375
        k(   17) = (   0.0000000   0.2500000  -0.2500000), wk =   0.0117188
        k(   18) = (  -0.0000000   0.3750000   0.3750000), wk =   0.0117188
        k(   19) = (  -0.0000000   0.3750000  -0.5000000), wk =   0.0234375
        k(   20) = (  -0.0000000   0.3750000  -0.3750000), wk =   0.0117188
        k(   21) = (  -0.0000000  -0.5000000  -0.5000000), wk =   0.0058594
        k(   22) = (   0.1250000   0.1250000   0.1250000), wk =   0.0039063
        k(   23) = (   0.1250000   0.1250000   0.2500000), wk =   0.0117188
        k(   24) = (   0.1250000   0.1250000   0.3750000), wk =   0.0117188
        k(   25) = (   0.1250000   0.1250000  -0.5000000), wk =   0.0117188
        k(   26) = (   0.1250000   0.1250000  -0.3750000), wk =   0.0117188
        k(   27) = (   0.1250000   0.1250000  -0.2500000), wk =   0.0117188
        k(   28) = (   0.1250000   0.1250000  -0.1250000), wk =   0.0117188
        k(   29) = (   0.1250000   0.2500000   0.2500000), wk =   0.0117188
        k(   30) = (   0.1250000   0.2500000   0.3750000), wk =   0.0234375
        k(   31) = (   0.1250000   0.2500000  -0.5000000), wk =   0.0234375
        k(   32) = (   0.1250000   0.2500000  -0.3750000), wk =   0.0234375
        k(   33) = (   0.1250000   0.2500000  -0.2500000), wk =   0.0234375
        k(   34) = (   0.1250000   0.2500000  -0.1250000), wk =   0.0234375
        k(   35) = (   0.1250000   0.3750000   0.3750000), wk =   0.0117188
        k(   36) = (   0.1250000   0.3750000  -0.5000000), wk =   0.0234375
        k(   37) = (   0.1250000   0.3750000  -0.3750000), wk =   0.0234375
        k(   38) = (   0.1250000   0.3750000  -0.2500000), wk =   0.0234375
        k(   39) = (   0.1250000   0.3750000  -0.1250000), wk =   0.0234375
        k(   40) = (   0.1250000  -0.5000000  -0.5000000), wk =   0.0117188
        k(   41) = (   0.1250000  -0.5000000  -0.3750000), wk =   0.0234375
        k(   42) = (   0.1250000  -0.5000000  -0.2500000), wk =   0.0234375
        k(   43) = (   0.1250000  -0.5000000  -0.1250000), wk =   0.0117188
        k(   44) = (   0.1250000  -0.3750000  -0.3750000), wk =   0.0117188
        k(   45) = (   0.1250000  -0.3750000  -0.2500000), wk =   0.0234375
        k(   46) = (   0.1250000  -0.2500000  -0.2500000), wk =   0.0117188
        k(   47) = (   0.2500000   0.2500000   0.2500000), wk =   0.0039063
        k(   48) = (   0.2500000   0.2500000   0.3750000), wk =   0.0117188
        k(   49) = (   0.2500000   0.2500000  -0.5000000), wk =   0.0117188
        k(   50) = (   0.2500000   0.2500000  -0.3750000), wk =   0.0117188
        k(   51) = (   0.2500000   0.2500000  -0.2500000), wk =   0.0117188
        k(   52) = (   0.2500000   0.3750000   0.3750000), wk =   0.0117188
        k(   53) = (   0.2500000   0.3750000  -0.5000000), wk =   0.0234375
        k(   54) = (   0.2500000   0.3750000  -0.3750000), wk =   0.0234375
        k(   55) = (   0.2500000   0.3750000  -0.2500000), wk =   0.0234375
        k(   56) = (   0.2500000  -0.5000000  -0.5000000), wk =   0.0117188
        k(   57) = (   0.2500000  -0.5000000  -0.3750000), wk =   0.0234375
        k(   58) = (   0.2500000  -0.5000000  -0.2500000), wk =   0.0117188
        k(   59) = (   0.2500000  -0.3750000  -0.3750000), wk =   0.0117188
        k(   60) = (   0.3750000   0.3750000   0.3750000), wk =   0.0039063
        k(   61) = (   0.3750000   0.3750000  -0.5000000), wk =   0.0117188
        k(   62) = (   0.3750000   0.3750000  -0.3750000), wk =   0.0117188
        k(   63) = (   0.3750000  -0.5000000  -0.5000000), wk =   0.0117188
        k(   64) = (   0.3750000  -0.5000000  -0.3750000), wk =   0.0117188
        k(   65) = (  -0.5000000  -0.5000000  -0.5000000), wk =   0.0019531

     Dense  grid:   178775 G-vectors     FFT dimensions: (  75,  75,  75)

     Smooth grid:    63167 G-vectors     FFT dimensions: (  54,  54,  54)

     Dynamical RAM for                 wfc:       8.56 MB

     Dynamical RAM for     wfc (w. buffer):    1120.76 MB

     Dynamical RAM for           str. fact:       8.18 MB

     Dynamical RAM for           local pot:       0.00 MB

     Dynamical RAM for          nlocal pot:      18.80 MB

     Dynamical RAM for                qrad:       4.82 MB

     Dynamical RAM for          rho,v,vnew:      35.68 MB

     Dynamical RAM for               rhoin:      11.89 MB

     Dynamical RAM for            rho*nmix:      87.29 MB

     Dynamical RAM for           G-vectors:      10.71 MB

     Dynamical RAM for          h,s,v(r/c):       0.92 MB

     Dynamical RAM for          <psi|beta>:       0.17 MB

     Dynamical RAM for                 psi:      17.11 MB

     Dynamical RAM for                hpsi:      17.11 MB

     Dynamical RAM for                spsi:      17.11 MB

     Dynamical RAM for      wfcinit/wfcrot:      20.41 MB

     Dynamical RAM for           addusdens:     526.48 MB

     Dynamical RAM for          addusforce:     553.81 MB

     Dynamical RAM for         addusstress:     552.40 MB

     Estimated static dynamical RAM per process >       1.21 GB

     Estimated max dynamical RAM per process >       1.84 GB

     Check: negative core charge=   -0.000013
     Generating pointlists ...
     new r_m :   0.1715 (alat units)  2.0235 (a.u.) for type    1
     new r_m :   0.1370 (alat units)  1.6165 (a.u.) for type    2
     new r_m :   0.1370 (alat units)  1.6165 (a.u.) for type    3

     Initial potential from superposition of free atoms

     starting charge     113.9999, renormalised to     118.0000

     negative rho (up, down):  1.784E-02 1.463E-02
     Starting wfcs are   84 randomized atomic wfcs
     Checking if some PAW data can be deallocated... 

     total cpu time spent up to now is        9.0 secs

     per-process dynamical memory:  1918.2 Mb

     Self-consistent Calculation
[tb_dev] Currently allocated     5.49E+00 Mbytes, locked:    0 /  12
[tb_pin] Currently allocated     0.00E+00 Mbytes, locked:    0 /   0

     iteration #  1     ecut=    50.00 Ry     beta= 0.40
     Davidson diagonalization with overlap

---- Real-time Memory Report at c_bands before calling an iterative solver
          2215 MiB given to the printing process from OS
          1885 MiB allocation reported by mallinfo(arena+hblkhd)
         36974 MiB available memory on the node where the printing process lives
     GPU memory used/free/total (MiB): 1274 / 15006 / 16280
------------------
     ethr =  1.00E-02,  avg # of iterations =  3.2

     negative rho (up, down):  1.728E-02 1.504E-02

     total cpu time spent up to now is       18.8 secs

     total energy              =   -1496.27065632 Ry
     estimated scf accuracy    <      24.12519636 Ry

     total magnetization       =    19.39 Bohr mag/cell
     absolute magnetization    =    19.40 Bohr mag/cell
[tb_dev] Currently allocated     5.49E+00 Mbytes, locked:    0 /  10
[tb_pin] Currently allocated     0.00E+00 Mbytes, locked:    0 /   0

     iteration #  2     ecut=    50.00 Ry     beta= 0.40
     Davidson diagonalization with overlap

---- Real-time Memory Report at c_bands before calling an iterative solver
          2414 MiB given to the printing process from OS
          1947 MiB allocation reported by mallinfo(arena+hblkhd)
         36911 MiB available memory on the node where the printing process lives
     GPU memory used/free/total (MiB): 2066 / 14214 / 16280
------------------
     ethr =  1.00E-02,  avg # of iterations =  3.0

     negative rho (up, down):  1.681E-02 1.478E-02

     total cpu time spent up to now is       29.8 secs

     total energy              =   -1499.79801511 Ry
     estimated scf accuracy    <      72.75386392 Ry

     total magnetization       =     3.84 Bohr mag/cell
     absolute magnetization    =     3.95 Bohr mag/cell
[tb_dev] Currently allocated     5.49E+00 Mbytes, locked:    0 /  10
[tb_pin] Currently allocated     0.00E+00 Mbytes, locked:    0 /   0

     iteration #  3     ecut=    50.00 Ry     beta= 0.40
     Davidson diagonalization with overlap

---- Real-time Memory Report at c_bands before calling an iterative solver
          2555 MiB given to the printing process from OS
          1977 MiB allocation reported by mallinfo(arena+hblkhd)
         36900 MiB available memory on the node where the printing process lives
     GPU memory used/free/total (MiB): 2066 / 14214 / 16280
------------------
     ethr =  1.00E-02,  avg # of iterations =  2.0

     negative rho (up, down):  1.598E-02 1.447E-02

     total cpu time spent up to now is       38.8 secs

     total energy              =   -1505.33247490 Ry
     estimated scf accuracy    <       2.33031817 Ry

     total magnetization       =    18.00 Bohr mag/cell
     absolute magnetization    =    18.01 Bohr mag/cell
[tb_dev] Currently allocated     5.49E+00 Mbytes, locked:    0 /  10
[tb_pin] Currently allocated     0.00E+00 Mbytes, locked:    0 /   0

     iteration #  4     ecut=    50.00 Ry     beta= 0.40
     Davidson diagonalization with overlap

---- Real-time Memory Report at c_bands before calling an iterative solver
          2673 MiB given to the printing process from OS
          1989 MiB allocation reported by mallinfo(arena+hblkhd)
         36889 MiB available memory on the node where the printing process lives
     GPU memory used/free/total (MiB): 2066 / 14214 / 16280
------------------
     ethr =  1.97E-03,  avg # of iterations =  1.1

     negative rho (up, down):  1.586E-02 1.444E-02

     total cpu time spent up to now is       46.1 secs

     total energy              =   -1505.77809916 Ry
     estimated scf accuracy    <       5.91975666 Ry

     total magnetization       =     9.71 Bohr mag/cell
     absolute magnetization    =     9.80 Bohr mag/cell
[tb_dev] Currently allocated     5.49E+00 Mbytes, locked:    0 /  10
[tb_pin] Currently allocated     0.00E+00 Mbytes, locked:    0 /   0

     iteration #  5     ecut=    50.00 Ry     beta= 0.40
     Davidson diagonalization with overlap

---- Real-time Memory Report at c_bands before calling an iterative solver
          2747 MiB given to the printing process from OS
          2005 MiB allocation reported by mallinfo(arena+hblkhd)
         36874 MiB available memory on the node where the printing process lives
     GPU memory used/free/total (MiB): 2066 / 14214 / 16280
------------------
     ethr =  1.97E-03,  avg # of iterations =  1.0

     negative rho (up, down):  1.567E-02 1.441E-02

     total cpu time spent up to now is       53.3 secs

     total energy              =   -1505.65426418 Ry
     estimated scf accuracy    <       6.23061951 Ry

     total magnetization       =     9.53 Bohr mag/cell
     absolute magnetization    =     9.66 Bohr mag/cell
[tb_dev] Currently allocated     5.49E+00 Mbytes, locked:    0 /  10
[tb_pin] Currently allocated     0.00E+00 Mbytes, locked:    0 /   0

     iteration #  6     ecut=    50.00 Ry     beta= 0.40
     Davidson diagonalization with overlap

---- Real-time Memory Report at c_bands before calling an iterative solver
          2804 MiB given to the printing process from OS
          2020 MiB allocation reported by mallinfo(arena+hblkhd)
         36859 MiB available memory on the node where the printing process lives
     GPU memory used/free/total (MiB): 2066 / 14214 / 16280
------------------
     ethr =  1.97E-03,  avg # of iterations =  1.0

     negative rho (up, down):  1.573E-02 1.452E-02

     total cpu time spent up to now is       60.6 secs

     total energy              =   -1505.80681006 Ry
     estimated scf accuracy    <       0.41309792 Ry

     total magnetization       =    12.80 Bohr mag/cell
     absolute magnetization    =    12.86 Bohr mag/cell
[tb_dev] Currently allocated     5.49E+00 Mbytes, locked:    0 /  10
[tb_pin] Currently allocated     0.00E+00 Mbytes, locked:    0 /   0

     iteration #  7     ecut=    50.00 Ry     beta= 0.40
     Davidson diagonalization with overlap

---- Real-time Memory Report at c_bands before calling an iterative solver
          2865 MiB given to the printing process from OS
          2040 MiB allocation reported by mallinfo(arena+hblkhd)
         36840 MiB available memory on the node where the printing process lives
     GPU memory used/free/total (MiB): 2066 / 14214 / 16280
------------------
     ethr =  3.50E-04,  avg # of iterations =  1.0

     negative rho (up, down):  1.576E-02 1.469E-02

     total cpu time spent up to now is       67.9 secs

     total energy              =   -1505.78876392 Ry
     estimated scf accuracy    <       1.40114006 Ry

     total magnetization       =    10.63 Bohr mag/cell
     absolute magnetization    =    10.75 Bohr mag/cell
[tb_dev] Currently allocated     5.49E+00 Mbytes, locked:    0 /  10
[tb_pin] Currently allocated     0.00E+00 Mbytes, locked:    0 /   0

     iteration #  8     ecut=    50.00 Ry     beta= 0.40
     Davidson diagonalization with overlap

---- Real-time Memory Report at c_bands before calling an iterative solver
          2920 MiB given to the printing process from OS
         -2041 MiB allocation reported by mallinfo(arena+hblkhd)
         36824 MiB available memory on the node where the printing process lives
     GPU memory used/free/total (MiB): 2066 / 14214 / 16280
------------------
     ethr =  3.50E-04,  avg # of iterations =  1.0

     negative rho (up, down):  1.577E-02 1.476E-02

     total cpu time spent up to now is       75.2 secs

     total energy              =   -1505.81659414 Ry
     estimated scf accuracy    <       0.14789986 Ry

     total magnetization       =    11.75 Bohr mag/cell
     absolute magnetization    =    11.86 Bohr mag/cell
[tb_dev] Currently allocated     5.49E+00 Mbytes, locked:    0 /  10
[tb_pin] Currently allocated     0.00E+00 Mbytes, locked:    0 /   0

     iteration #  9     ecut=    50.00 Ry     beta= 0.40
     Davidson diagonalization with overlap

---- Real-time Memory Report at c_bands before calling an iterative solver
          2939 MiB given to the printing process from OS
         -2031 MiB allocation reported by mallinfo(arena+hblkhd)
         36819 MiB available memory on the node where the printing process lives
     GPU memory used/free/total (MiB): 2066 / 14214 / 16280
------------------
     ethr =  1.25E-04,  avg # of iterations =  1.1

     negative rho (up, down):  1.575E-02 1.475E-02

     total cpu time spent up to now is       82.6 secs

     total energy              =   -1505.81696892 Ry
     estimated scf accuracy    <       0.14119879 Ry

     total magnetization       =    11.10 Bohr mag/cell
     absolute magnetization    =    11.24 Bohr mag/cell
[tb_dev] Currently allocated     5.49E+00 Mbytes, locked:    0 /  10
[tb_pin] Currently allocated     0.00E+00 Mbytes, locked:    0 /   0

     iteration # 10     ecut=    50.00 Ry     beta= 0.40
     Davidson diagonalization with overlap

---- Real-time Memory Report at c_bands before calling an iterative solver
          2964 MiB given to the printing process from OS
         -2015 MiB allocation reported by mallinfo(arena+hblkhd)
         36800 MiB available memory on the node where the printing process lives
     GPU memory used/free/total (MiB): 2066 / 14214 / 16280
------------------
     ethr =  1.20E-04,  avg # of iterations =  1.1

     negative rho (up, down):  1.576E-02 1.476E-02

     total cpu time spent up to now is       89.9 secs

     total energy              =   -1505.81741763 Ry
     estimated scf accuracy    <       0.07973191 Ry

     total magnetization       =    11.09 Bohr mag/cell
     absolute magnetization    =    11.23 Bohr mag/cell
[tb_dev] Currently allocated     5.49E+00 Mbytes, locked:    0 /  10
[tb_pin] Currently allocated     0.00E+00 Mbytes, locked:    0 /   0

     iteration # 11     ecut=    50.00 Ry     beta= 0.40
     Davidson diagonalization with overlap

---- Real-time Memory Report at c_bands before calling an iterative solver
          2984 MiB given to the printing process from OS
         -2004 MiB allocation reported by mallinfo(arena+hblkhd)
         36790 MiB available memory on the node where the printing process lives
     GPU memory used/free/total (MiB): 2066 / 14214 / 16280
------------------
     ethr =  6.76E-05,  avg # of iterations =  1.2

     negative rho (up, down):  1.574E-02 1.476E-02

     total cpu time spent up to now is       97.4 secs

     total energy              =   -1505.81796157 Ry
     estimated scf accuracy    <       0.08281000 Ry

     total magnetization       =    10.42 Bohr mag/cell
     absolute magnetization    =    10.57 Bohr mag/cell
[tb_dev] Currently allocated     5.49E+00 Mbytes, locked:    0 /  10
[tb_pin] Currently allocated     0.00E+00 Mbytes, locked:    0 /   0

     iteration # 12     ecut=    50.00 Ry     beta= 0.40
     Davidson diagonalization with overlap

---- Real-time Memory Report at c_bands before calling an iterative solver
          3001 MiB given to the printing process from OS
         -1993 MiB allocation reported by mallinfo(arena+hblkhd)
         36774 MiB available memory on the node where the printing process lives
     GPU memory used/free/total (MiB): 2066 / 14214 / 16280
------------------
     ethr =  6.76E-05,  avg # of iterations =  1.1

     negative rho (up, down):  1.575E-02 1.475E-02

     total cpu time spent up to now is      104.7 secs

     total energy              =   -1505.81479031 Ry
     estimated scf accuracy    <       0.01840931 Ry

     total magnetization       =    10.13 Bohr mag/cell
     absolute magnetization    =    10.28 Bohr mag/cell
[tb_dev] Currently allocated     5.49E+00 Mbytes, locked:    0 /  10
[tb_pin] Currently allocated     0.00E+00 Mbytes, locked:    0 /   0

     iteration # 13     ecut=    50.00 Ry     beta= 0.40
     Davidson diagonalization with overlap

---- Real-time Memory Report at c_bands before calling an iterative solver
          3008 MiB given to the printing process from OS
         -1982 MiB allocation reported by mallinfo(arena+hblkhd)
         36770 MiB available memory on the node where the printing process lives
     GPU memory used/free/total (MiB): 2066 / 14214 / 16280
------------------
     ethr =  1.56E-05,  avg # of iterations =  2.4

     negative rho (up, down):  1.576E-02 1.475E-02

     total cpu time spent up to now is      113.1 secs

     total energy              =   -1505.81685325 Ry
     estimated scf accuracy    <       0.01304116 Ry

     total magnetization       =    11.06 Bohr mag/cell
     absolute magnetization    =    11.19 Bohr mag/cell
[tb_dev] Currently allocated     5.49E+00 Mbytes, locked:    0 /  10
[tb_pin] Currently allocated     0.00E+00 Mbytes, locked:    0 /   0

     iteration # 14     ecut=    50.00 Ry     beta= 0.40
     Davidson diagonalization with overlap

---- Real-time Memory Report at c_bands before calling an iterative solver
          3019 MiB given to the printing process from OS
         -1971 MiB allocation reported by mallinfo(arena+hblkhd)
         36756 MiB available memory on the node where the printing process lives
     GPU memory used/free/total (MiB): 2066 / 14214 / 16280
------------------
     ethr =  1.11E-05,  avg # of iterations =  1.1

     negative rho (up, down):  1.576E-02 1.474E-02

     total cpu time spent up to now is      120.4 secs

     total energy              =   -1505.81703408 Ry
     estimated scf accuracy    <       0.00531329 Ry

     total magnetization       =    11.39 Bohr mag/cell
     absolute magnetization    =    11.52 Bohr mag/cell
[tb_dev] Currently allocated     5.49E+00 Mbytes, locked:    0 /  10
[tb_pin] Currently allocated     0.00E+00 Mbytes, locked:    0 /   0

     iteration # 15     ecut=    50.00 Ry     beta= 0.40
     Davidson diagonalization with overlap

---- Real-time Memory Report at c_bands before calling an iterative solver
          3030 MiB given to the printing process from OS
         -1960 MiB allocation reported by mallinfo(arena+hblkhd)
         36748 MiB available memory on the node where the printing process lives
     GPU memory used/free/total (MiB): 2066 / 14214 / 16280
------------------
     ethr =  4.50E-06,  avg # of iterations =  1.8

     negative rho (up, down):  1.576E-02 1.473E-02

     total cpu time spent up to now is      128.3 secs

     total energy              =   -1505.81661255 Ry
     estimated scf accuracy    <       0.00653822 Ry

     total magnetization       =    11.45 Bohr mag/cell
     absolute magnetization    =    11.58 Bohr mag/cell
[tb_dev] Currently allocated     5.49E+00 Mbytes, locked:    0 /  10
[tb_pin] Currently allocated     0.00E+00 Mbytes, locked:    0 /   0

     iteration # 16     ecut=    50.00 Ry     beta= 0.40
     Davidson diagonalization with overlap

---- Real-time Memory Report at c_bands before calling an iterative solver
          3044 MiB given to the printing process from OS
         -1949 MiB allocation reported by mallinfo(arena+hblkhd)
         36733 MiB available memory on the node where the printing process lives
     GPU memory used/free/total (MiB): 2066 / 14214 / 16280
------------------
     ethr =  4.50E-06,  avg # of iterations =  1.0

     negative rho (up, down):  1.577E-02 1.471E-02

     total cpu time spent up to now is      135.6 secs

     total energy              =   -1505.81486706 Ry
     estimated scf accuracy    <       0.00401045 Ry

     total magnetization       =    11.69 Bohr mag/cell
     absolute magnetization    =    11.81 Bohr mag/cell
[tb_dev] Currently allocated     5.49E+00 Mbytes, locked:    0 /  10
[tb_pin] Currently allocated     0.00E+00 Mbytes, locked:    0 /   0

     iteration # 17     ecut=    50.00 Ry     beta= 0.40
     Davidson diagonalization with overlap

---- Real-time Memory Report at c_bands before calling an iterative solver
          3057 MiB given to the printing process from OS
         -1938 MiB allocation reported by mallinfo(arena+hblkhd)
         36722 MiB available memory on the node where the printing process lives
     GPU memory used/free/total (MiB): 2066 / 14214 / 16280
------------------
     ethr =  3.40E-06,  avg # of iterations =  2.3

     negative rho (up, down):  1.578E-02 1.470E-02

     total cpu time spent up to now is      144.0 secs

     total energy              =   -1505.81490775 Ry
     estimated scf accuracy    <       0.00435813 Ry

     total magnetization       =    12.04 Bohr mag/cell
     absolute magnetization    =    12.17 Bohr mag/cell
[tb_dev] Currently allocated     5.49E+00 Mbytes, locked:    0 /  10
[tb_pin] Currently allocated     0.00E+00 Mbytes, locked:    0 /   0

     iteration # 18     ecut=    50.00 Ry     beta= 0.40
     Davidson diagonalization with overlap

---- Real-time Memory Report at c_bands before calling an iterative solver
          3067 MiB given to the printing process from OS
         -1927 MiB allocation reported by mallinfo(arena+hblkhd)
         36707 MiB available memory on the node where the printing process lives
     GPU memory used/free/total (MiB): 2066 / 14214 / 16280
------------------
     ethr =  3.40E-06,  avg # of iterations =  2.0

     negative rho (up, down):  1.578E-02 1.471E-02

     total cpu time spent up to now is      152.1 secs

     total energy              =   -1505.81597981 Ry
     estimated scf accuracy    <       0.00881883 Ry

     total magnetization       =    12.31 Bohr mag/cell
     absolute magnetization    =    12.43 Bohr mag/cell
[tb_dev] Currently allocated     5.49E+00 Mbytes, locked:    0 /  10
[tb_pin] Currently allocated     0.00E+00 Mbytes, locked:    0 /   0

     iteration # 19     ecut=    50.00 Ry     beta= 0.40
     Davidson diagonalization with overlap

---- Real-time Memory Report at c_bands before calling an iterative solver
          3082 MiB given to the printing process from OS
         -1916 MiB allocation reported by mallinfo(arena+hblkhd)
         36696 MiB available memory on the node where the printing process lives
     GPU memory used/free/total (MiB): 2066 / 14214 / 16280
------------------
     ethr =  3.40E-06,  avg # of iterations =  1.0

     negative rho (up, down):  1.576E-02 1.473E-02

     total cpu time spent up to now is      159.4 secs

     total energy              =   -1505.81521472 Ry
     estimated scf accuracy    <       0.00696983 Ry

     total magnetization       =    12.01 Bohr mag/cell
     absolute magnetization    =    12.13 Bohr mag/cell
[tb_dev] Currently allocated     5.49E+00 Mbytes, locked:    0 /  10
[tb_pin] Currently allocated     0.00E+00 Mbytes, locked:    0 /   0

     iteration # 20     ecut=    50.00 Ry     beta= 0.40
     Davidson diagonalization with overlap

---- Real-time Memory Report at c_bands before calling an iterative solver
          3096 MiB given to the printing process from OS
         -1905 MiB allocation reported by mallinfo(arena+hblkhd)
         36682 MiB available memory on the node where the printing process lives
     GPU memory used/free/total (MiB): 2066 / 14214 / 16280
------------------
     ethr =  3.40E-06,  avg # of iterations =  2.2

     negative rho (up, down):  1.576E-02 1.474E-02

     total cpu time spent up to now is      168.2 secs

     total energy              =   -1505.81816459 Ry
     estimated scf accuracy    <       0.00708627 Ry

     total magnetization       =    11.17 Bohr mag/cell
     absolute magnetization    =    11.29 Bohr mag/cell
[tb_dev] Currently allocated     5.49E+00 Mbytes, locked:    0 /  10
[tb_pin] Currently allocated     0.00E+00 Mbytes, locked:    0 /   0

     iteration # 21     ecut=    50.00 Ry     beta= 0.40
     Davidson diagonalization with overlap

---- Real-time Memory Report at c_bands before calling an iterative solver
          3105 MiB given to the printing process from OS
         -1894 MiB allocation reported by mallinfo(arena+hblkhd)
         36675 MiB available memory on the node where the printing process lives
     GPU memory used/free/total (MiB): 2066 / 14214 / 16280
------------------
     ethr =  3.40E-06,  avg # of iterations =  1.0

     negative rho (up, down):  1.576E-02 1.474E-02

     total cpu time spent up to now is      175.5 secs

     total energy              =   -1505.81842536 Ry
     estimated scf accuracy    <       0.00636712 Ry

     total magnetization       =    10.94 Bohr mag/cell
     absolute magnetization    =    11.06 Bohr mag/cell
[tb_dev] Currently allocated     5.49E+00 Mbytes, locked:    0 /  10
[tb_pin] Currently allocated     0.00E+00 Mbytes, locked:    0 /   0

     iteration # 22     ecut=    50.00 Ry     beta= 0.40
     Davidson diagonalization with overlap

---- Real-time Memory Report at c_bands before calling an iterative solver
          3118 MiB given to the printing process from OS
         -1883 MiB allocation reported by mallinfo(arena+hblkhd)
         36659 MiB available memory on the node where the printing process lives
     GPU memory used/free/total (MiB): 2066 / 14214 / 16280
------------------
     ethr =  3.40E-06,  avg # of iterations =  1.0

     negative rho (up, down):  1.577E-02 1.473E-02

     total cpu time spent up to now is      182.7 secs

     total energy              =   -1505.81578245 Ry
     estimated scf accuracy    <       0.00647310 Ry

     total magnetization       =    10.91 Bohr mag/cell
     absolute magnetization    =    11.04 Bohr mag/cell
[tb_dev] Currently allocated     5.49E+00 Mbytes, locked:    0 /  10
[tb_pin] Currently allocated     0.00E+00 Mbytes, locked:    0 /   0

     iteration # 23     ecut=    50.00 Ry     beta= 0.40
     Davidson diagonalization with overlap

---- Real-time Memory Report at c_bands before calling an iterative solver
          3126 MiB given to the printing process from OS
         -1872 MiB allocation reported by mallinfo(arena+hblkhd)
         36654 MiB available memory on the node where the printing process lives
     GPU memory used/free/total (MiB): 2066 / 14214 / 16280
------------------
     ethr =  3.40E-06,  avg # of iterations =  1.8

     negative rho (up, down):  1.579E-02 1.471E-02

     total cpu time spent up to now is      190.8 secs

     total energy              =   -1505.80983024 Ry
     estimated scf accuracy    <       0.00441028 Ry

     total magnetization       =    11.56 Bohr mag/cell
     absolute magnetization    =    11.68 Bohr mag/cell
[tb_dev] Currently allocated     5.49E+00 Mbytes, locked:    0 /  10
[tb_pin] Currently allocated     0.00E+00 Mbytes, locked:    0 /   0

     iteration # 24     ecut=    50.00 Ry     beta= 0.40
     Davidson diagonalization with overlap

---- Real-time Memory Report at c_bands before calling an iterative solver
          3141 MiB given to the printing process from OS
         -1861 MiB allocation reported by mallinfo(arena+hblkhd)
         36635 MiB available memory on the node where the printing process lives
     GPU memory used/free/total (MiB): 2066 / 14214 / 16280
------------------
     ethr =  3.40E-06,  avg # of iterations =  2.1

     negative rho (up, down):  1.578E-02 1.472E-02

     total cpu time spent up to now is      199.9 secs

     total energy              =   -1505.81548747 Ry
     estimated scf accuracy    <       0.01408493 Ry

     total magnetization       =    12.42 Bohr mag/cell
     absolute magnetization    =    12.55 Bohr mag/cell
[tb_dev] Currently allocated     5.49E+00 Mbytes, locked:    0 /  10
[tb_pin] Currently allocated     0.00E+00 Mbytes, locked:    0 /   0

     iteration # 25     ecut=    50.00 Ry     beta= 0.40
     Davidson diagonalization with overlap

---- Real-time Memory Report at c_bands before calling an iterative solver
          3152 MiB given to the printing process from OS
         -1850 MiB allocation reported by mallinfo(arena+hblkhd)
         36628 MiB available memory on the node where the printing process lives
     GPU memory used/free/total (MiB): 2066 / 14214 / 16280
------------------
     ethr =  3.40E-06,  avg # of iterations =  1.3

     negative rho (up, down):  1.576E-02 1.475E-02

     total cpu time spent up to now is      207.4 secs

     total energy              =   -1505.81319691 Ry
     estimated scf accuracy    <       0.00697535 Ry

     total magnetization       =    12.09 Bohr mag/cell
     absolute magnetization    =    12.22 Bohr mag/cell
[tb_dev] Currently allocated     5.49E+00 Mbytes, locked:    0 /  10
[tb_pin] Currently allocated     0.00E+00 Mbytes, locked:    0 /   0

     iteration # 26     ecut=    50.00 Ry     beta= 0.40
     Davidson diagonalization with overlap

---- Real-time Memory Report at c_bands before calling an iterative solver
          3164 MiB given to the printing process from OS
         -1839 MiB allocation reported by mallinfo(arena+hblkhd)
         36613 MiB available memory on the node where the printing process lives
     GPU memory used/free/total (MiB): 2066 / 14214 / 16280
------------------
     ethr =  3.40E-06,  avg # of iterations =  2.1

     negative rho (up, down):  1.574E-02 1.477E-02

     total cpu time spent up to now is      216.4 secs

     total energy              =   -1505.81724783 Ry
     estimated scf accuracy    <       0.00598346 Ry

     total magnetization       =    10.94 Bohr mag/cell
     absolute magnetization    =    11.06 Bohr mag/cell
[tb_dev] Currently allocated     5.49E+00 Mbytes, locked:    0 /  10
[tb_pin] Currently allocated     0.00E+00 Mbytes, locked:    0 /   0

     iteration # 27     ecut=    50.00 Ry     beta= 0.40
     Davidson diagonalization with overlap

---- Real-time Memory Report at c_bands before calling an iterative solver
          3179 MiB given to the printing process from OS
         -1827 MiB allocation reported by mallinfo(arena+hblkhd)
         36601 MiB available memory on the node where the printing process lives
     GPU memory used/free/total (MiB): 2066 / 14214 / 16280
------------------
     ethr =  3.40E-06,  avg # of iterations =  2.0

     negative rho (up, down):  1.573E-02 1.478E-02

     total cpu time spent up to now is      224.9 secs

     total energy              =   -1505.82030248 Ry
     estimated scf accuracy    <       0.01246203 Ry

     total magnetization       =    10.00 Bohr mag/cell
     absolute magnetization    =    10.13 Bohr mag/cell
[tb_dev] Currently allocated     5.49E+00 Mbytes, locked:    0 /  10
[tb_pin] Currently allocated     0.00E+00 Mbytes, locked:    0 /   0

     iteration # 28     ecut=    50.00 Ry     beta= 0.40
     Davidson diagonalization with overlap

---- Real-time Memory Report at c_bands before calling an iterative solver
          3190 MiB given to the printing process from OS
         -1816 MiB allocation reported by mallinfo(arena+hblkhd)
         36586 MiB available memory on the node where the printing process lives
     GPU memory used/free/total (MiB): 2066 / 14214 / 16280
------------------
     ethr =  3.40E-06,  avg # of iterations =  2.0

     negative rho (up, down):  1.573E-02 1.478E-02

     total cpu time spent up to now is      233.5 secs

     total energy              =   -1505.82286714 Ry
     estimated scf accuracy    <       0.02832954 Ry

     total magnetization       =     9.04 Bohr mag/cell
     absolute magnetization    =     9.23 Bohr mag/cell
[tb_dev] Currently allocated     5.49E+00 Mbytes, locked:    0 /  10
[tb_pin] Currently allocated     0.00E+00 Mbytes, locked:    0 /   0

     iteration # 29     ecut=    50.00 Ry     beta= 0.40
     Davidson diagonalization with overlap

---- Real-time Memory Report at c_bands before calling an iterative solver
          3199 MiB given to the printing process from OS
         -1805 MiB allocation reported by mallinfo(arena+hblkhd)
         36578 MiB available memory on the node where the printing process lives
     GPU memory used/free/total (MiB): 2066 / 14214 / 16280
------------------
     ethr =  3.40E-06,  avg # of iterations =  1.0

     negative rho (up, down):  1.572E-02 1.479E-02

     total cpu time spent up to now is      240.7 secs

     total energy              =   -1505.82404780 Ry
     estimated scf accuracy    <       0.02701710 Ry

     total magnetization       =     9.11 Bohr mag/cell
     absolute magnetization    =     9.29 Bohr mag/cell
[tb_dev] Currently allocated     5.49E+00 Mbytes, locked:    0 /  10
[tb_pin] Currently allocated     0.00E+00 Mbytes, locked:    0 /   0

     iteration # 30     ecut=    50.00 Ry     beta= 0.40
     Davidson diagonalization with overlap

---- Real-time Memory Report at c_bands before calling an iterative solver
          3212 MiB given to the printing process from OS
         -1794 MiB allocation reported by mallinfo(arena+hblkhd)
         36562 MiB available memory on the node where the printing process lives
     GPU memory used/free/total (MiB): 2066 / 14214 / 16280
------------------
     ethr =  3.40E-06,  avg # of iterations =  1.4

     negative rho (up, down):  1.574E-02 1.477E-02

     total cpu time spent up to now is      248.4 secs

     total energy              =   -1505.81206232 Ry
     estimated scf accuracy    <       0.03388881 Ry

     total magnetization       =     8.65 Bohr mag/cell
     absolute magnetization    =     8.91 Bohr mag/cell
[tb_dev] Currently allocated     5.49E+00 Mbytes, locked:    0 /  10
[tb_pin] Currently allocated     0.00E+00 Mbytes, locked:    0 /   0

     iteration # 31     ecut=    50.00 Ry     beta= 0.40
     Davidson diagonalization with overlap

---- Real-time Memory Report at c_bands before calling an iterative solver
          3225 MiB given to the printing process from OS
         -1783 MiB allocation reported by mallinfo(arena+hblkhd)
         36553 MiB available memory on the node where the printing process lives
     GPU memory used/free/total (MiB): 2066 / 14214 / 16280
------------------
     ethr =  3.40E-06,  avg # of iterations =  2.1

     negative rho (up, down):  1.573E-02 1.478E-02

     total cpu time spent up to now is      257.3 secs

     total energy              =   -1505.81960560 Ry
     estimated scf accuracy    <       0.01067539 Ry

     total magnetization       =    10.17 Bohr mag/cell
     absolute magnetization    =    10.29 Bohr mag/cell
[tb_dev] Currently allocated     5.49E+00 Mbytes, locked:    0 /  10
[tb_pin] Currently allocated     0.00E+00 Mbytes, locked:    0 /   0

     iteration # 32     ecut=    50.00 Ry     beta= 0.40
     Davidson diagonalization with overlap

---- Real-time Memory Report at c_bands before calling an iterative solver
          3241 MiB given to the printing process from OS
         -1772 MiB allocation reported by mallinfo(arena+hblkhd)
         36538 MiB available memory on the node where the printing process lives
     GPU memory used/free/total (MiB): 2066 / 14214 / 16280
------------------
     ethr =  3.40E-06,  avg # of iterations =  1.5

     negative rho (up, down):  1.574E-02 1.477E-02

     total cpu time spent up to now is      265.1 secs

     total energy              =   -1505.81310417 Ry
     estimated scf accuracy    <       0.01850502 Ry

     total magnetization       =     9.34 Bohr mag/cell
     absolute magnetization    =     9.50 Bohr mag/cell
[tb_dev] Currently allocated     5.49E+00 Mbytes, locked:    0 /  10
[tb_pin] Currently allocated     0.00E+00 Mbytes, locked:    0 /   0

     iteration # 33     ecut=    50.00 Ry     beta= 0.40
     Davidson diagonalization with overlap

---- Real-time Memory Report at c_bands before calling an iterative solver
          3249 MiB given to the printing process from OS
         -1761 MiB allocation reported by mallinfo(arena+hblkhd)
         36530 MiB available memory on the node where the printing process lives
     GPU memory used/free/total (MiB): 2066 / 14214 / 16280
------------------
     ethr =  3.40E-06,  avg # of iterations =  2.0

     negative rho (up, down):  1.576E-02 1.475E-02

     total cpu time spent up to now is      273.8 secs

     total energy              =   -1505.81413478 Ry
     estimated scf accuracy    <       0.00440865 Ry

     total magnetization       =    10.66 Bohr mag/cell
     absolute magnetization    =    10.77 Bohr mag/cell
[tb_dev] Currently allocated     5.49E+00 Mbytes, locked:    0 /  10
[tb_pin] Currently allocated     0.00E+00 Mbytes, locked:    0 /   0

     iteration # 34     ecut=    50.00 Ry     beta= 0.40
     Davidson diagonalization with overlap

---- Real-time Memory Report at c_bands before calling an iterative solver
          3262 MiB given to the printing process from OS
         -1750 MiB allocation reported by mallinfo(arena+hblkhd)
         36515 MiB available memory on the node where the printing process lives
     GPU memory used/free/total (MiB): 2066 / 14214 / 16280
------------------
     ethr =  3.40E-06,  avg # of iterations =  2.0

     negative rho (up, down):  1.576E-02 1.474E-02

     total cpu time spent up to now is      282.4 secs

     total energy              =   -1505.81626365 Ry
     estimated scf accuracy    <       0.00273903 Ry

     total magnetization       =    11.51 Bohr mag/cell
     absolute magnetization    =    11.63 Bohr mag/cell
[tb_dev] Currently allocated     5.49E+00 Mbytes, locked:    0 /  10
[tb_pin] Currently allocated     0.00E+00 Mbytes, locked:    0 /   0

     iteration # 35     ecut=    50.00 Ry     beta= 0.40
     Davidson diagonalization with overlap

---- Real-time Memory Report at c_bands before calling an iterative solver
          3273 MiB given to the printing process from OS
         -1739 MiB allocation reported by mallinfo(arena+hblkhd)
         36508 MiB available memory on the node where the printing process lives
     GPU memory used/free/total (MiB): 2066 / 14214 / 16280
------------------
     ethr =  2.32E-06,  avg # of iterations =  1.6

     negative rho (up, down):  1.576E-02 1.474E-02

     total cpu time spent up to now is      290.1 secs

     total energy              =   -1505.81673538 Ry
     estimated scf accuracy    <       0.00323280 Ry

     total magnetization       =    11.74 Bohr mag/cell
     absolute magnetization    =    11.86 Bohr mag/cell
[tb_dev] Currently allocated     5.49E+00 Mbytes, locked:    0 /  10
[tb_pin] Currently allocated     0.00E+00 Mbytes, locked:    0 /   0

     iteration # 36     ecut=    50.00 Ry     beta= 0.40
     Davidson diagonalization with overlap

---- Real-time Memory Report at c_bands before calling an iterative solver
          3286 MiB given to the printing process from OS
         -1728 MiB allocation reported by mallinfo(arena+hblkhd)
         36495 MiB available memory on the node where the printing process lives
     GPU memory used/free/total (MiB): 2066 / 14214 / 16280
------------------
     ethr =  2.32E-06,  avg # of iterations =  1.0

     negative rho (up, down):  1.578E-02 1.473E-02

     total cpu time spent up to now is      297.4 secs

     total energy              =   -1505.81179270 Ry
     estimated scf accuracy    <       0.00286281 Ry

     total magnetization       =    11.69 Bohr mag/cell
     absolute magnetization    =    11.80 Bohr mag/cell
[tb_dev] Currently allocated     5.49E+00 Mbytes, locked:    0 /  10
[tb_pin] Currently allocated     0.00E+00 Mbytes, locked:    0 /   0

     iteration # 37     ecut=    50.00 Ry     beta= 0.40
     Davidson diagonalization with overlap

---- Real-time Memory Report at c_bands before calling an iterative solver
          3297 MiB given to the printing process from OS
         -1717 MiB allocation reported by mallinfo(arena+hblkhd)
         36487 MiB available memory on the node where the printing process lives
     GPU memory used/free/total (MiB): 2066 / 14214 / 16280
------------------
     c_bands:  1 eigenvalues not converged
     ethr =  2.32E-06,  avg # of iterations =  2.4

     negative rho (up, down):  1.575E-02 1.475E-02

     total cpu time spent up to now is      306.7 secs

     total energy              =   -1505.80806437 Ry
     estimated scf accuracy    <       0.01380445 Ry

     total magnetization       =    12.27 Bohr mag/cell
     absolute magnetization    =    12.39 Bohr mag/cell
[tb_dev] Currently allocated     5.49E+00 Mbytes, locked:    0 /  10
[tb_pin] Currently allocated     0.00E+00 Mbytes, locked:    0 /   0

     iteration # 38     ecut=    50.00 Ry     beta= 0.40
     Davidson diagonalization with overlap

---- Real-time Memory Report at c_bands before calling an iterative solver
          3308 MiB given to the printing process from OS
         -1706 MiB allocation reported by mallinfo(arena+hblkhd)
         36471 MiB available memory on the node where the printing process lives
     GPU memory used/free/total (MiB): 2066 / 14214 / 16280
------------------
     ethr =  2.32E-06,  avg # of iterations =  3.1

     negative rho (up, down):  1.573E-02 1.477E-02

     total cpu time spent up to now is      317.6 secs

     total energy              =   -1505.81578910 Ry
     estimated scf accuracy    <       0.00602412 Ry

     total magnetization       =    10.77 Bohr mag/cell
     absolute magnetization    =    10.89 Bohr mag/cell
[tb_dev] Currently allocated     5.49E+00 Mbytes, locked:    0 /  10
[tb_pin] Currently allocated     0.00E+00 Mbytes, locked:    0 /   0

     iteration # 39     ecut=    50.00 Ry     beta= 0.40
     Davidson diagonalization with overlap

---- Real-time Memory Report at c_bands before calling an iterative solver
          3322 MiB given to the printing process from OS
         -1695 MiB allocation reported by mallinfo(arena+hblkhd)
         36461 MiB available memory on the node where the printing process lives
     GPU memory used/free/total (MiB): 2066 / 14214 / 16280
------------------
     ethr =  2.32E-06,  avg # of iterations =  2.9

     negative rho (up, down):  1.574E-02 1.476E-02

     total cpu time spent up to now is      327.8 secs

     total energy              =   -1505.81658150 Ry
     estimated scf accuracy    <       0.01786163 Ry

     total magnetization       =     9.45 Bohr mag/cell
     absolute magnetization    =     9.61 Bohr mag/cell
[tb_dev] Currently allocated     5.49E+00 Mbytes, locked:    0 /  10
[tb_pin] Currently allocated     0.00E+00 Mbytes, locked:    0 /   0

     iteration # 40     ecut=    50.00 Ry     beta= 0.40
     Davidson diagonalization with overlap

---- Real-time Memory Report at c_bands before calling an iterative solver
          3333 MiB given to the printing process from OS
         -1680 MiB allocation reported by mallinfo(arena+hblkhd)
         36445 MiB available memory on the node where the printing process lives
     GPU memory used/free/total (MiB): 2066 / 14214 / 16280
------------------
     ethr =  2.32E-06,  avg # of iterations =  2.0

     negative rho (up, down):  1.575E-02 1.476E-02

     total cpu time spent up to now is      336.2 secs

     total energy              =   -1505.81806153 Ry
     estimated scf accuracy    <       0.00732980 Ry

     total magnetization       =    10.37 Bohr mag/cell
     absolute magnetization    =    10.49 Bohr mag/cell
[tb_dev] Currently allocated     5.49E+00 Mbytes, locked:    0 /  10
[tb_pin] Currently allocated     0.00E+00 Mbytes, locked:    0 /   0

     iteration # 41     ecut=    50.00 Ry     beta= 0.40
     Davidson diagonalization with overlap

---- Real-time Memory Report at c_bands before calling an iterative solver
          3346 MiB given to the printing process from OS
         -1673 MiB allocation reported by mallinfo(arena+hblkhd)
         36441 MiB available memory on the node where the printing process lives
     GPU memory used/free/total (MiB): 2066 / 14214 / 16280
------------------
     ethr =  2.32E-06,  avg # of iterations =  1.4

     negative rho (up, down):  1.576E-02 1.474E-02

     total cpu time spent up to now is      343.8 secs

     total energy              =   -1505.81329871 Ry
     estimated scf accuracy    <       0.00506078 Ry

     total magnetization       =    10.73 Bohr mag/cell
     absolute magnetization    =    10.85 Bohr mag/cell
[tb_dev] Currently allocated     5.49E+00 Mbytes, locked:    0 /  10
[tb_pin] Currently allocated     0.00E+00 Mbytes, locked:    0 /   0

     iteration # 42     ecut=    50.00 Ry     beta= 0.40
     Davidson diagonalization with overlap

---- Real-time Memory Report at c_bands before calling an iterative solver
          3357 MiB given to the printing process from OS
         -1658 MiB allocation reported by mallinfo(arena+hblkhd)
         36423 MiB available memory on the node where the printing process lives
     GPU memory used/free/total (MiB): 2066 / 14214 / 16280
------------------
     ethr =  2.32E-06,  avg # of iterations =  2.3

     negative rho (up, down):  1.576E-02 1.473E-02

     total cpu time spent up to now is      352.9 secs

     total energy              =   -1505.81587188 Ry
     estimated scf accuracy    <       0.00353617 Ry

     total magnetization       =    11.66 Bohr mag/cell
     absolute magnetization    =    11.77 Bohr mag/cell
[tb_dev] Currently allocated     5.49E+00 Mbytes, locked:    0 /  10
[tb_pin] Currently allocated     0.00E+00 Mbytes, locked:    0 /   0

     iteration # 43     ecut=    50.00 Ry     beta= 0.40
     Davidson diagonalization with overlap

---- Real-time Memory Report at c_bands before calling an iterative solver
          3368 MiB given to the printing process from OS
         -1647 MiB allocation reported by mallinfo(arena+hblkhd)
         36416 MiB available memory on the node where the printing process lives
     GPU memory used/free/total (MiB): 2066 / 14214 / 16280
------------------
     ethr =  2.32E-06,  avg # of iterations =  1.6

     negative rho (up, down):  1.576E-02 1.474E-02

     total cpu time spent up to now is      360.6 secs

     total energy              =   -1505.81658877 Ry
     estimated scf accuracy    <       0.00535985 Ry

     total magnetization       =    11.92 Bohr mag/cell
     absolute magnetization    =    12.04 Bohr mag/cell
[tb_dev] Currently allocated     5.49E+00 Mbytes, locked:    0 /  10
[tb_pin] Currently allocated     0.00E+00 Mbytes, locked:    0 /   0

     iteration # 44     ecut=    50.00 Ry     beta= 0.40
     Davidson diagonalization with overlap

---- Real-time Memory Report at c_bands before calling an iterative solver
          3380 MiB given to the printing process from OS
         -1636 MiB allocation reported by mallinfo(arena+hblkhd)
         36401 MiB available memory on the node where the printing process lives
     GPU memory used/free/total (MiB): 2066 / 14214 / 16280
------------------
     ethr =  2.32E-06,  avg # of iterations =  1.0

     negative rho (up, down):  1.576E-02 1.474E-02

     total cpu time spent up to now is      367.9 secs

     total energy              =   -1505.81678523 Ry
     estimated scf accuracy    <       0.00397915 Ry

     total magnetization       =    11.73 Bohr mag/cell
     absolute magnetization    =    11.85 Bohr mag/cell
[tb_dev] Currently allocated     5.49E+00 Mbytes, locked:    0 /  10
[tb_pin] Currently allocated     0.00E+00 Mbytes, locked:    0 /   0

     iteration # 45     ecut=    50.00 Ry     beta= 0.40
     Davidson diagonalization with overlap

---- Real-time Memory Report at c_bands before calling an iterative solver
          3391 MiB given to the printing process from OS
         -1625 MiB allocation reported by mallinfo(arena+hblkhd)
         36394 MiB available memory on the node where the printing process lives
     GPU memory used/free/total (MiB): 2066 / 14214 / 16280
------------------
     ethr =  2.32E-06,  avg # of iterations =  1.0

     negative rho (up, down):  1.577E-02 1.473E-02

     total cpu time spent up to now is      375.2 secs

     total energy              =   -1505.81542405 Ry
     estimated scf accuracy    <       0.00396326 Ry

     total magnetization       =    11.74 Bohr mag/cell
     absolute magnetization    =    11.86 Bohr mag/cell
[tb_dev] Currently allocated     5.49E+00 Mbytes, locked:    0 /  10
[tb_pin] Currently allocated     0.00E+00 Mbytes, locked:    0 /   0

     iteration # 46     ecut=    50.00 Ry     beta= 0.40
     Davidson diagonalization with overlap

---- Real-time Memory Report at c_bands before calling an iterative solver
          3404 MiB given to the printing process from OS
         -1614 MiB allocation reported by mallinfo(arena+hblkhd)
         36379 MiB available memory on the node where the printing process lives
     GPU memory used/free/total (MiB): 2066 / 14214 / 16280
------------------
     ethr =  2.32E-06,  avg # of iterations =  1.5

     negative rho (up, down):  1.577E-02 1.473E-02

     total cpu time spent up to now is      382.9 secs

     total energy              =   -1505.81608519 Ry
     estimated scf accuracy    <       0.00644808 Ry

     total magnetization       =    12.04 Bohr mag/cell
     absolute magnetization    =    12.16 Bohr mag/cell
[tb_dev] Currently allocated     5.49E+00 Mbytes, locked:    0 /  10
[tb_pin] Currently allocated     0.00E+00 Mbytes, locked:    0 /   0

     iteration # 47     ecut=    50.00 Ry     beta= 0.40
     Davidson diagonalization with overlap

---- Real-time Memory Report at c_bands before calling an iterative solver
          3416 MiB given to the printing process from OS
         -1600 MiB allocation reported by mallinfo(arena+hblkhd)
         36369 MiB available memory on the node where the printing process lives
     GPU memory used/free/total (MiB): 2066 / 14214 / 16280
------------------
     ethr =  2.32E-06,  avg # of iterations =  1.0

     negative rho (up, down):  1.577E-02 1.473E-02

     total cpu time spent up to now is      390.2 secs

     total energy              =   -1505.81553141 Ry
     estimated scf accuracy    <       0.00622007 Ry

     total magnetization       =    12.01 Bohr mag/cell
     absolute magnetization    =    12.13 Bohr mag/cell
[tb_dev] Currently allocated     5.49E+00 Mbytes, locked:    0 /  10
[tb_pin] Currently allocated     0.00E+00 Mbytes, locked:    0 /   0

     iteration # 48     ecut=    50.00 Ry     beta= 0.40
     Davidson diagonalization with overlap

---- Real-time Memory Report at c_bands before calling an iterative solver
          3429 MiB given to the printing process from OS
         -1586 MiB allocation reported by mallinfo(arena+hblkhd)
         36353 MiB available memory on the node where the printing process lives
     GPU memory used/free/total (MiB): 2066 / 14214 / 16280
------------------
     ethr =  2.32E-06,  avg # of iterations =  1.0

     negative rho (up, down):  1.575E-02 1.475E-02

     total cpu time spent up to now is      397.4 secs

     total energy              =   -1505.81066722 Ry
     estimated scf accuracy    <       0.00862736 Ry

     total magnetization       =    12.13 Bohr mag/cell
     absolute magnetization    =    12.26 Bohr mag/cell
[tb_dev] Currently allocated     5.49E+00 Mbytes, locked:    0 /  10
[tb_pin] Currently allocated     0.00E+00 Mbytes, locked:    0 /   0

     iteration # 49     ecut=    50.00 Ry     beta= 0.40
     Davidson diagonalization with overlap

---- Real-time Memory Report at c_bands before calling an iterative solver
          3442 MiB given to the printing process from OS
         -1575 MiB allocation reported by mallinfo(arena+hblkhd)
         36345 MiB available memory on the node where the printing process lives
     GPU memory used/free/total (MiB): 2066 / 14214 / 16280
------------------
     ethr =  2.32E-06,  avg # of iterations =  2.6

     negative rho (up, down):  1.571E-02 1.479E-02

     total cpu time spent up to now is      407.6 secs

     total energy              =   -1505.80186643 Ry
     estimated scf accuracy    <       0.00320398 Ry

     total magnetization       =    10.88 Bohr mag/cell
     absolute magnetization    =    11.01 Bohr mag/cell
[tb_dev] Currently allocated     5.49E+00 Mbytes, locked:    0 /  10
[tb_pin] Currently allocated     0.00E+00 Mbytes, locked:    0 /   0

     iteration # 50     ecut=    50.00 Ry     beta= 0.40
     Davidson diagonalization with overlap

---- Real-time Memory Report at c_bands before calling an iterative solver
          3454 MiB given to the printing process from OS
         -1564 MiB allocation reported by mallinfo(arena+hblkhd)
         36329 MiB available memory on the node where the printing process lives
     GPU memory used/free/total (MiB): 2066 / 14214 / 16280
------------------
     ethr =  2.32E-06,  avg # of iterations =  4.9

     negative rho (up, down):  1.576E-02 1.473E-02

     total cpu time spent up to now is      420.5 secs

     total energy              =   -1505.76173774 Ry
     estimated scf accuracy    <       0.03064549 Ry

     total magnetization       =     8.30 Bohr mag/cell
     absolute magnetization    =     8.69 Bohr mag/cell
[tb_dev] Currently allocated     5.49E+00 Mbytes, locked:    0 /  10
[tb_pin] Currently allocated     0.00E+00 Mbytes, locked:    0 /   0

     iteration # 51     ecut=    50.00 Ry     beta= 0.40
     Davidson diagonalization with overlap

---- Real-time Memory Report at c_bands before calling an iterative solver
          3465 MiB given to the printing process from OS
         -1553 MiB allocation reported by mallinfo(arena+hblkhd)
         36322 MiB available memory on the node where the printing process lives
     GPU memory used/free/total (MiB): 2066 / 14214 / 16280
------------------
     ethr =  2.32E-06,  avg # of iterations =  5.5

     negative rho (up, down):  1.575E-02 1.475E-02

     total cpu time spent up to now is      434.6 secs

     total energy              =   -1505.81534072 Ry
     estimated scf accuracy    <       0.00525110 Ry

     total magnetization       =    11.92 Bohr mag/cell
     absolute magnetization    =    12.04 Bohr mag/cell
[tb_dev] Currently allocated     5.49E+00 Mbytes, locked:    0 /  10
[tb_pin] Currently allocated     0.00E+00 Mbytes, locked:    0 /   0

     iteration # 52     ecut=    50.00 Ry     beta= 0.40
     Davidson diagonalization with overlap

---- Real-time Memory Report at c_bands before calling an iterative solver
          3476 MiB given to the printing process from OS
         -1542 MiB allocation reported by mallinfo(arena+hblkhd)
         36308 MiB available memory on the node where the printing process lives
     GPU memory used/free/total (MiB): 2066 / 14214 / 16280
------------------
     ethr =  2.32E-06,  avg # of iterations =  2.0

     negative rho (up, down):  1.575E-02 1.475E-02

     total cpu time spent up to now is      443.2 secs

     total energy              =   -1505.81680360 Ry
     estimated scf accuracy    <       0.00310964 Ry

     total magnetization       =    11.24 Bohr mag/cell
     absolute magnetization    =    11.36 Bohr mag/cell
[tb_dev] Currently allocated     5.49E+00 Mbytes, locked:    0 /  10
[tb_pin] Currently allocated     0.00E+00 Mbytes, locked:    0 /   0

     iteration # 53     ecut=    50.00 Ry     beta= 0.40
     Davidson diagonalization with overlap

---- Real-time Memory Report at c_bands before calling an iterative solver
          3490 MiB given to the printing process from OS
         -1529 MiB allocation reported by mallinfo(arena+hblkhd)
         36299 MiB available memory on the node where the printing process lives
     GPU memory used/free/total (MiB): 2066 / 14214 / 16280
------------------
     ethr =  2.32E-06,  avg # of iterations =  1.0

     negative rho (up, down):  1.578E-02 1.472E-02

     total cpu time spent up to now is      450.5 secs

     total energy              =   -1505.80451706 Ry
     estimated scf accuracy    <       0.00306857 Ry

     total magnetization       =    11.52 Bohr mag/cell
     absolute magnetization    =    11.64 Bohr mag/cell
[tb_dev] Currently allocated     5.49E+00 Mbytes, locked:    0 /  10
[tb_pin] Currently allocated     0.00E+00 Mbytes, locked:    0 /   0

     iteration # 54     ecut=    50.00 Ry     beta= 0.40
     Davidson diagonalization with overlap

---- Real-time Memory Report at c_bands before calling an iterative solver
          3500 MiB given to the printing process from OS
         -1515 MiB allocation reported by mallinfo(arena+hblkhd)
         36281 MiB available memory on the node where the printing process lives
     GPU memory used/free/total (MiB): 2066 / 14214 / 16280
------------------
     ethr =  2.32E-06,  avg # of iterations =  3.2

     negative rho (up, down):  1.577E-02 1.473E-02

     total cpu time spent up to now is      461.4 secs

     total energy              =   -1505.81409265 Ry
     estimated scf accuracy    <       0.03001864 Ry

     total magnetization       =    12.45 Bohr mag/cell
     absolute magnetization    =    12.58 Bohr mag/cell
[tb_dev] Currently allocated     5.49E+00 Mbytes, locked:    0 /  10
[tb_pin] Currently allocated     0.00E+00 Mbytes, locked:    0 /   0

     iteration # 55     ecut=    50.00 Ry     beta= 0.40
     Davidson diagonalization with overlap

---- Real-time Memory Report at c_bands before calling an iterative solver
          3513 MiB given to the printing process from OS
         -1504 MiB allocation reported by mallinfo(arena+hblkhd)
         36274 MiB available memory on the node where the printing process lives
     GPU memory used/free/total (MiB): 2066 / 14214 / 16280
------------------
     ethr =  2.32E-06,  avg # of iterations =  1.6

     negative rho (up, down):  1.576E-02 1.474E-02

     total cpu time spent up to now is      469.3 secs

     total energy              =   -1505.81462305 Ry
     estimated scf accuracy    <       0.01344688 Ry

     total magnetization       =    12.27 Bohr mag/cell
     absolute magnetization    =    12.40 Bohr mag/cell
[tb_dev] Currently allocated     5.49E+00 Mbytes, locked:    0 /  10
[tb_pin] Currently allocated     0.00E+00 Mbytes, locked:    0 /   0

     iteration # 56     ecut=    50.00 Ry     beta= 0.40
     Davidson diagonalization with overlap

---- Real-time Memory Report at c_bands before calling an iterative solver
          3524 MiB given to the printing process from OS
         -1493 MiB allocation reported by mallinfo(arena+hblkhd)
         36259 MiB available memory on the node where the printing process lives
     GPU memory used/free/total (MiB): 2066 / 14214 / 16280
------------------
     ethr =  2.32E-06,  avg # of iterations =  2.0

     negative rho (up, down):  1.576E-02 1.474E-02

     total cpu time spent up to now is      478.1 secs

     total energy              =   -1505.81661383 Ry
     estimated scf accuracy    <       0.00403471 Ry

     total magnetization       =    11.74 Bohr mag/cell
     absolute magnetization    =    11.86 Bohr mag/cell
[tb_dev] Currently allocated     5.49E+00 Mbytes, locked:    0 /  10
[tb_pin] Currently allocated     0.00E+00 Mbytes, locked:    0 /   0

     iteration # 57     ecut=    50.00 Ry     beta= 0.40
     Davidson diagonalization with overlap

---- Real-time Memory Report at c_bands before calling an iterative solver
          3536 MiB given to the printing process from OS
         -1482 MiB allocation reported by mallinfo(arena+hblkhd)
         36250 MiB available memory on the node where the printing process lives
     GPU memory used/free/total (MiB): 2066 / 14214 / 16280
------------------
     ethr =  2.32E-06,  avg # of iterations =  1.0

     negative rho (up, down):  1.576E-02 1.474E-02

[...]
     estimated scf accuracy    <       0.00542000 Ry

     total magnetization       =    10.48 Bohr mag/cell
     absolute magnetization    =    10.59 Bohr mag/cell
[tb_dev] Currently allocated     5.49E+00 Mbytes, locked:    0 /  10
[tb_pin] Currently allocated     0.00E+00 Mbytes, locked:    0 /   0

     iteration # 66     ecut=    50.00 Ry     beta= 0.40
     Davidson diagonalization with overlap

---- Real-time Memory Report at c_bands before calling an iterative solver
          3647 MiB given to the printing process from OS
         -1371 MiB allocation reported by mallinfo(arena+hblkhd)
         36137 MiB available memory on the node where the printing process lives
     GPU memory used/free/total (MiB): 2066 / 14214 / 16280
------------------
     ethr =  2.32E-06,  avg # of iterations =  1.0

     negative rho (up, down):  1.575E-02 1.476E-02

     total cpu time spent up to now is      558.0 secs

     total energy              =   -1505.81645342 Ry
     estimated scf accuracy    <       0.00587568 Ry

     total magnetization       =    10.49 Bohr mag/cell
     absolute magnetization    =    10.61 Bohr mag/cell
[tb_dev] Currently allocated     5.49E+00 Mbytes, locked:    0 /  10
[tb_pin] Currently allocated     0.00E+00 Mbytes, locked:    0 /   0

     iteration # 67     ecut=    50.00 Ry     beta= 0.40
     Davidson diagonalization with overlap

---- Real-time Memory Report at c_bands before calling an iterative solver
          3658 MiB given to the printing process from OS
         -1360 MiB allocation reported by mallinfo(arena+hblkhd)
         36129 MiB available memory on the node where the printing process lives
     GPU memory used/free/total (MiB): 2066 / 14214 / 16280
------------------
     ethr =  2.32E-06,  avg # of iterations =  2.0

     negative rho (up, down):  1.575E-02 1.476E-02

     total cpu time spent up to now is      566.4 secs

     total energy              =   -1505.81778627 Ry
     estimated scf accuracy    <       0.00327790 Ry

     total magnetization       =    11.09 Bohr mag/cell
     absolute magnetization    =    11.20 Bohr mag/cell
[tb_dev] Currently allocated     5.49E+00 Mbytes, locked:    0 /  10
[tb_pin] Currently allocated     0.00E+00 Mbytes, locked:    0 /   0

     iteration # 68     ecut=    50.00 Ry     beta= 0.40
     Davidson diagonalization with overlap

---- Real-time Memory Report at c_bands before calling an iterative solver
          3672 MiB given to the printing process from OS
         -1347 MiB allocation reported by mallinfo(arena+hblkhd)
         36115 MiB available memory on the node where the printing process lives
     GPU memory used/free/total (MiB): 2066 / 14214 / 16280
------------------
     ethr =  2.32E-06,  avg # of iterations =  1.0

     negative rho (up, down):  1.576E-02 1.475E-02

     total cpu time spent up to now is      573.7 secs

     total energy              =   -1505.81542609 Ry
     estimated scf accuracy    <       0.00314915 Ry

     total magnetization       =    11.08 Bohr mag/cell
     absolute magnetization    =    11.19 Bohr mag/cell
[tb_dev] Currently allocated     5.49E+00 Mbytes, locked:    0 /  10
[tb_pin] Currently allocated     0.00E+00 Mbytes, locked:    0 /   0

     iteration # 69     ecut=    50.00 Ry     beta= 0.40
     Davidson diagonalization with overlap

---- Real-time Memory Report at c_bands before calling an iterative solver
          3683 MiB given to the printing process from OS
         -1336 MiB allocation reported by mallinfo(arena+hblkhd)
         36106 MiB available memory on the node where the printing process lives
     GPU memory used/free/total (MiB): 2066 / 14214 / 16280
------------------
     ethr =  2.32E-06,  avg # of iterations =  2.0

     negative rho (up, down):  1.580E-02 1.470E-02

     total cpu time spent up to now is      582.1 secs

     total energy              =   -1505.78829349 Ry
     estimated scf accuracy    <       0.00324155 Ry

     total magnetization       =    11.63 Bohr mag/cell
     absolute magnetization    =    11.75 Bohr mag/cell
[tb_dev] Currently allocated     5.49E+00 Mbytes, locked:    0 /  10
[tb_pin] Currently allocated     0.00E+00 Mbytes, locked:    0 /   0

     iteration # 70     ecut=    50.00 Ry     beta= 0.40
     Davidson diagonalization with overlap

---- Real-time Memory Report at c_bands before calling an iterative solver
          3694 MiB given to the printing process from OS
         -1322 MiB allocation reported by mallinfo(arena+hblkhd)
         36088 MiB available memory on the node where the printing process lives
     GPU memory used/free/total (MiB): 2066 / 14214 / 16280
------------------
     ethr =  2.32E-06,  avg # of iterations =  5.1

     negative rho (up, down):  1.579E-02 1.471E-02

     total cpu time spent up to now is      595.3 secs

     total energy              =   -1505.81145618 Ry
     estimated scf accuracy    <       0.10429648 Ry

     total magnetization       =    12.74 Bohr mag/cell
     absolute magnetization    =    12.89 Bohr mag/cell
[tb_dev] Currently allocated     5.49E+00 Mbytes, locked:    0 /  10
[tb_pin] Currently allocated     0.00E+00 Mbytes, locked:    0 /   0

     iteration # 71     ecut=    50.00 Ry     beta= 0.40
     Davidson diagonalization with overlap

---- Real-time Memory Report at c_bands before calling an iterative solver
          3706 MiB given to the printing process from OS
         -1311 MiB allocation reported by mallinfo(arena+hblkhd)
         36081 MiB available memory on the node where the printing process lives
     GPU memory used/free/total (MiB): 2066 / 14214 / 16280
------------------
     ethr =  2.32E-06,  avg # of iterations =  2.0

     negative rho (up, down):  1.573E-02 1.478E-02

     total cpu time spent up to now is      603.9 secs

     total energy              =   -1505.76902108 Ry
     estimated scf accuracy    <       0.04299478 Ry

     total magnetization       =    12.55 Bohr mag/cell
     absolute magnetization    =    12.69 Bohr mag/cell
[tb_dev] Currently allocated     5.49E+00 Mbytes, locked:    0 /  10
[tb_pin] Currently allocated     0.00E+00 Mbytes, locked:    0 /   0

     iteration # 72     ecut=    50.00 Ry     beta= 0.40
     Davidson diagonalization with overlap

---- Real-time Memory Report at c_bands before calling an iterative solver
          3717 MiB given to the printing process from OS
         -1300 MiB allocation reported by mallinfo(arena+hblkhd)
         36067 MiB available memory on the node where the printing process lives
     GPU memory used/free/total (MiB): 2066 / 14214 / 16280
------------------
     ethr =  2.32E-06,  avg # of iterations =  5.9

     negative rho (up, down):  1.578E-02 1.472E-02

     total cpu time spent up to now is      618.9 secs

     total energy              =   -1505.74396811 Ry
     estimated scf accuracy    <       0.02905622 Ry

     total magnetization       =     8.93 Bohr mag/cell
     absolute magnetization    =     9.13 Bohr mag/cell
[tb_dev] Currently allocated     5.49E+00 Mbytes, locked:    0 /  10
[tb_pin] Currently allocated     0.00E+00 Mbytes, locked:    0 /   0

     iteration # 73     ecut=    50.00 Ry     beta= 0.40
     Davidson diagonalization with overlap

---- Real-time Memory Report at c_bands before calling an iterative solver
          3732 MiB given to the printing process from OS
         -1287 MiB allocation reported by mallinfo(arena+hblkhd)
         36057 MiB available memory on the node where the printing process lives
     GPU memory used/free/total (MiB): 2066 / 14214 / 16280
------------------
     ethr =  2.32E-06,  avg # of iterations =  5.8

     negative rho (up, down):  1.573E-02 1.477E-02

     total cpu time spent up to now is      633.6 secs

     total energy              =   -1505.78292940 Ry
     estimated scf accuracy    <       0.03065693 Ry

     total magnetization       =    12.51 Bohr mag/cell
     absolute magnetization    =    12.64 Bohr mag/cell
[tb_dev] Currently allocated     5.49E+00 Mbytes, locked:    0 /  10
[tb_pin] Currently allocated     0.00E+00 Mbytes, locked:    0 /   0

     iteration # 74     ecut=    50.00 Ry     beta= 0.40
     Davidson diagonalization with overlap

---- Real-time Memory Report at c_bands before calling an iterative solver
          3742 MiB given to the printing process from OS
         -1276 MiB allocation reported by mallinfo(arena+hblkhd)
         36044 MiB available memory on the node where the printing process lives
     GPU memory used/free/total (MiB): 2066 / 14214 / 16280
------------------
     ethr =  2.32E-06,  avg # of iterations =  5.5

     negative rho (up, down):  1.570E-02 1.480E-02

     total cpu time spent up to now is      647.6 secs

     total energy              =   -1505.81631028 Ry
     estimated scf accuracy    <       0.01669611 Ry

     total magnetization       =     9.45 Bohr mag/cell
     absolute magnetization    =     9.60 Bohr mag/cell
[tb_dev] Currently allocated     5.49E+00 Mbytes, locked:    0 /  10
[tb_pin] Currently allocated     0.00E+00 Mbytes, locked:    0 /   0

     iteration # 75     ecut=    50.00 Ry     beta= 0.40
     Davidson diagonalization with overlap

---- Real-time Memory Report at c_bands before calling an iterative solver
          3754 MiB given to the printing process from OS
         -1262 MiB allocation reported by mallinfo(arena+hblkhd)
         36031 MiB available memory on the node where the printing process lives
     GPU memory used/free/total (MiB): 2066 / 14214 / 16280
------------------
     ethr =  2.32E-06,  avg # of iterations =  4.1

     negative rho (up, down):  1.580E-02 1.470E-02

     total cpu time spent up to now is      659.8 secs

     total energy              =   -1505.62767488 Ry
     estimated scf accuracy    <       0.02176956 Ry

     total magnetization       =     8.06 Bohr mag/cell
     absolute magnetization    =     8.56 Bohr mag/cell
[tb_dev] Currently allocated     5.49E+00 Mbytes, locked:    0 /  10
[tb_pin] Currently allocated     0.00E+00 Mbytes, locked:    0 /   0

     iteration # 76     ecut=    50.00 Ry     beta= 0.40
     Davidson diagonalization with overlap

---- Real-time Memory Report at c_bands before calling an iterative solver
          3767 MiB given to the printing process from OS
         -1251 MiB allocation reported by mallinfo(arena+hblkhd)
         36017 MiB available memory on the node where the printing process lives
     GPU memory used/free/total (MiB): 2066 / 14214 / 16280
------------------
     ethr =  2.32E-06,  avg # of iterations =  7.0

     negative rho (up, down):  1.579E-02 1.470E-02

     total cpu time spent up to now is      676.6 secs

     total energy              =   -1505.80300034 Ry
     estimated scf accuracy    <       0.16417847 Ry

     total magnetization       =    12.84 Bohr mag/cell
     absolute magnetization    =    12.99 Bohr mag/cell
[tb_dev] Currently allocated     5.49E+00 Mbytes, locked:    0 /  10
[tb_pin] Currently allocated     0.00E+00 Mbytes, locked:    0 /   0

     iteration # 77     ecut=    50.00 Ry     beta= 0.40
     Davidson diagonalization with overlap

---- Real-time Memory Report at c_bands before calling an iterative solver
          3780 MiB given to the printing process from OS
         -1236 MiB allocation reported by mallinfo(arena+hblkhd)
         36007 MiB available memory on the node where the printing process lives
     GPU memory used/free/total (MiB): 2066 / 14214 / 16280
------------------
     ethr =  2.32E-06,  avg # of iterations =  1.0

     negative rho (up, down):  1.580E-02 1.470E-02

     total cpu time spent up to now is      683.9 secs

     total energy              =   -1505.80026158 Ry
     estimated scf accuracy    <       0.13487393 Ry

     total magnetization       =    12.78 Bohr mag/cell
     absolute magnetization    =    12.93 Bohr mag/cell
[tb_dev] Currently allocated     5.49E+00 Mbytes, locked:    0 /  10
[tb_pin] Currently allocated     0.00E+00 Mbytes, locked:    0 /   0

     iteration # 78     ecut=    50.00 Ry     beta= 0.40
     Davidson diagonalization with overlap

---- Real-time Memory Report at c_bands before calling an iterative solver
          3791 MiB given to the printing process from OS
         -1225 MiB allocation reported by mallinfo(arena+hblkhd)
         35992 MiB available memory on the node where the printing process lives
     GPU memory used/free/total (MiB): 2066 / 14214 / 16280
------------------
     ethr =  2.32E-06,  avg # of iterations =  1.0

     negative rho (up, down):  1.570E-02 1.481E-02

     total cpu time spent up to now is      691.2 secs

     total energy              =   -1505.68871244 Ry
     estimated scf accuracy    <       0.16883474 Ry

     total magnetization       =    12.85 Bohr mag/cell
     absolute magnetization    =    13.00 Bohr mag/cell
[tb_dev] Currently allocated     5.49E+00 Mbytes, locked:    0 /  10
[tb_pin] Currently allocated     0.00E+00 Mbytes, locked:    0 /   0

     iteration # 79     ecut=    50.00 Ry     beta= 0.40
     Davidson diagonalization with overlap

---- Real-time Memory Report at c_bands before calling an iterative solver
          3805 MiB given to the printing process from OS
         -1214 MiB allocation reported by mallinfo(arena+hblkhd)
         35984 MiB available memory on the node where the printing process lives
     GPU memory used/free/total (MiB): 2066 / 14214 / 16280
------------------
     ethr =  2.32E-06,  avg # of iterations =  7.3

     negative rho (up, down):  1.574E-02 1.477E-02

     total cpu time spent up to now is      708.4 secs

     total energy              =   -1505.80300602 Ry
     estimated scf accuracy    <       0.02959790 Ry

     total magnetization       =     8.03 Bohr mag/cell
     absolute magnetization    =     8.53 Bohr mag/cell
[tb_dev] Currently allocated     5.49E+00 Mbytes, locked:    0 /  10
[tb_pin] Currently allocated     0.00E+00 Mbytes, locked:    0 /   0

     iteration # 80     ecut=    50.00 Ry     beta= 0.40
     Davidson diagonalization with overlap

---- Real-time Memory Report at c_bands before calling an iterative solver
          3816 MiB given to the printing process from OS
         -1203 MiB allocation reported by mallinfo(arena+hblkhd)
         35971 MiB available memory on the node where the printing process lives
     GPU memory used/free/total (MiB): 2066 / 14214 / 16280
------------------
     ethr =  2.32E-06,  avg # of iterations =  4.2

     negative rho (up, down):  1.572E-02 1.478E-02

     total cpu time spent up to now is      720.8 secs

     total energy              =   -1505.82086285 Ry
     estimated scf accuracy    <       0.01698274 Ry

     total magnetization       =     9.83 Bohr mag/cell
     absolute magnetization    =     9.96 Bohr mag/cell

     End of self-consistent calculation

     convergence NOT achieved after  80 iterations: stopping

     Writing config to output data dir ./out/aiida.save/
 
     init_run     :     26.96s CPU      8.22s WALL (       1 calls)
     electrons    :   1234.87s CPU    711.92s WALL (       1 calls)

     Called by init_run:
     wfcinit      :      4.23s CPU      5.42s WALL (       1 calls)
                                        5.42s GPU  (       1 calls)
     wfcinit:atom :      0.06s CPU      0.09s WALL (     130 calls)
                                        0.09s GPU  (     130 calls)
     wfcinit:wfcr :      2.48s CPU      3.11s WALL (     130 calls)
                                        3.11s GPU  (     130 calls)
     potinit      :     10.13s CPU      0.96s WALL (       1 calls)
     hinit0       :      8.05s CPU      1.17s WALL (       1 calls)

     Called by electrons:
     c_bands      :    616.81s CPU    562.00s WALL (      80 calls)
     sum_band     :     91.20s CPU    100.27s WALL (      80 calls)
     v_of_rho     :     29.85s CPU      2.69s WALL (      81 calls)
     v_h          :      4.22s CPU      0.37s WALL (      81 calls)
     v_xc         :     25.62s CPU      2.32s WALL (      81 calls)
     newd         :     57.88s CPU      5.61s WALL (      81 calls)
                                        5.60s GPU  (      81 calls)
     PAW_pot      :    403.89s CPU     37.55s WALL (      81 calls)
     mix_rho      :     34.40s CPU      3.89s WALL (      80 calls)

     Called by c_bands:
     init_us_2    :     36.26s CPU     36.96s WALL (   20930 calls)
     init_us_2:gp :     35.87s CPU     36.60s WALL (   20930 calls)
     cegterg      :    525.39s CPU    480.67s WALL (   10400 calls)

     Called by sum_band:
     sum_band:wei :      0.73s CPU      0.74s WALL (      80 calls)
                                        0.73s GPU  (      80 calls)
     sum_band:loo :     83.78s CPU     92.61s WALL (      80 calls)
                                       92.61s GPU  (      80 calls)
     sum_band:buf :     25.36s CPU     26.55s WALL (   10400 calls)
                                       26.49s GPU  (   10400 calls)
     sum_band:ini :     15.09s CPU     18.00s WALL (   10400 calls)
                                       17.94s GPU  (   10400 calls)
     sum_band:cal :      0.29s CPU      3.44s WALL (   10400 calls)
                                        3.13s GPU  (   10400 calls)
     sum_band:bec :      3.29s CPU      3.61s WALL (   10400 calls)
                                        3.54s GPU  (   10400 calls)
     addusdens    :      5.00s CPU      5.21s WALL (      80 calls)
                                        5.20s GPU  (      80 calls)
     addusd:skk   :      0.04s CPU      0.04s WALL (     240 calls)
                                        0.04s GPU  (     240 calls)

     Called by *egterg:
     cdiaghg      :    196.21s CPU    195.97s WALL (   32588 calls)
                                      195.74s GPU  (   32588 calls)
     cegterg:over :     11.19s CPU     10.17s WALL (   22188 calls)
     cegterg:upda :     19.63s CPU     17.50s WALL (   22188 calls)
     cegterg:last :      8.65s CPU      7.87s WALL (   17261 calls)
     h_psi        :    257.39s CPU    222.79s WALL (   32718 calls)
                                      222.29s GPU  (   32718 calls)
     s_psi        :      6.94s CPU     14.12s WALL (   32718 calls)
                                       13.14s GPU  (   32718 calls)
     g_psi        :      0.19s CPU      1.21s WALL (   22188 calls)
                                        1.07s GPU  (   22188 calls)

     Called by h_psi:
     h_psi:calbec :      1.19s CPU      8.93s WALL (   32718 calls)
                                        8.72s GPU  (   32718 calls)
     vloc_psi     :    224.73s CPU    194.68s WALL (   32718 calls)
                                      194.47s GPU  (   32718 calls)
     add_vuspsi   :     10.68s CPU     16.02s WALL (   32718 calls)
                                       15.80s GPU  (   32718 calls)

     General routines
     calbec       :      1.04s CPU      0.94s WALL (   43118 calls)
     fft          :      2.99s CPU      0.64s WALL (    2023 calls)
                                        0.55s GPU  (    1861 calls)
     ffts         :      0.12s CPU      0.04s WALL (     322 calls)
                                        0.01s GPU  (     160 calls)
     fftw         :      6.73s CPU    154.92s WALL (  305642 calls)
                                      153.21s GPU  (  305642 calls)
     interpolate  :      3.74s CPU      0.33s WALL (     162 calls)
     davcio       :      0.60s CPU      0.72s WALL (     148 calls)
 
     Parallel routines

     PAW routines
     PAW_pot      :    403.89s CPU     37.55s WALL (      81 calls)
     PAW_symme    :      0.14s CPU      0.02s WALL (     161 calls)
 
     PWSCF        :  21m 5.23s CPU  12m 1.77s WALL

 
   This run was terminated on:  18:25: 8  22Oct2023            

=------------------------------------------------------------------------------=
   JOB DONE.
=------------------------------------------------------------------------------=
