
     Program PWSCF v.7.2 starts on 19Dec2023 at 22:30: 8 
        Git branch: develop
        Last git commit: 9055681be6fc8200e6fffe76ed5fda34c2696339
        Last git commit date: Wed Nov 8 16:29:39 2023 +0000
        Last git commit subject: Merge branch 'calbec_fix' into 'develop'

     This program is part of the open-source Quantum ESPRESSO suite
     for quantum simulation of materials; please cite
         "P. Giannozzi et al., J. Phys.:Condens. Matter 21 395502 (2009);
         "P. Giannozzi et al., J. Phys.:Condens. Matter 29 465901 (2017);
         "P. Giannozzi et al., J. Chem. Phys. 152 154105 (2020);
          URL http://www.quantum-espresso.org", 
     in publications or presentations arising from this work. More details at
     http://www.quantum-espresso.org/quote

     Parallel version (MPI), running on    56 processors

     MPI processes distributed on     1 nodes
     490662 MiB available memory on the printing compute node when the environment starts

     Reading input from aiida.in

     Current dimensions of program PWSCF are:
     Max number of different atomic species (ntypx) = 10
     Max number of k-points (npk) =  40000
     Max angular momentum in pseudopotentials (lmaxx) =  4
     file O.pbesol-n-kjpaw_psl.0.1.UPF: wavefunction(s)  2P renormalized
     Message from routine setup:
     using ibrav=0 with symmetry is DISCOURAGED, use correct ibrav instead

     K-points division:     npool     =       7
     R & G space division:  proc/nbgrp/npool/nimage =       8
     Subspace diagonalization in iterative solution of the eigenvalue problem:
     a serial algorithm will be used


     Parallelization info
     --------------------
     sticks:   dense  smooth     PW     G-vecs:    dense   smooth      PW
     Min         341     169     49                13416     4736     746
     Max         342     170     50                13419     4738     748
     Sum        2735    1359    399               107339    37897    5977

     Using Slab Decomposition



     bravais-lattice index     =            0
     lattice parameter (alat)  =       8.4603  a.u.
     unit-cell volume          =     604.0218 (a.u.)^3
     number of atoms/cell      =            5
     number of atomic types    =            3
     number of electrons       =        30.00
     number of Kohn-Sham states=           19
     kinetic-energy cutoff     =      60.0000  Ry
     charge density cutoff     =     480.0000  Ry
     scf convergence threshold =      1.0E-09
     mixing beta               =       0.4000
     number of iterations used =            8  plain     mixing
     Exchange-correlation= SLA  PW   PSX  PSC
                           (   1   4  10   8   0   0   0)

     celldm(1)=   8.460298  celldm(2)=   0.000000  celldm(3)=   0.000000
     celldm(4)=   0.000000  celldm(5)=   0.000000  celldm(6)=   0.000000

     crystal axes: (cart. coord. in units of alat)
               a(1) = (   0.692205   0.399645   0.600946 )  
               a(2) = (  -0.692205   0.399645   0.600946 )  
               a(3) = (   0.000000  -0.799290   0.600946 )  

     reciprocal axes: (cart. coord. in units 2 pi/alat)
               b(1) = (  0.722329  0.417037  0.554681 )  
               b(2) = ( -0.722329  0.417037  0.554681 )  
               b(3) = ( -0.000000 -0.834074  0.554681 )  


     PseudoPot. # 1 for Br read from file:
     ./pseudo/br_pbesol_v1.4.uspp.F.UPF
     MD5 check sum: 7bf6084e715f6bfd1944787c04c43e72
     Pseudo is Ultrasoft + core correction, Zval =  7.0
     Generated by new atomic code, or converted to UPF format
     Using radial grid of  879 points,  6 beta functions with: 
                l(1) =   0
                l(2) =   0
                l(3) =   1
                l(4) =   1
                l(5) =   2
                l(6) =   2
     Q(r) pseudized with  8 coefficients,  rinner =    1.200   1.200   1.200
                                                       1.200   1.200

     PseudoPot. # 2 for N  read from file:
     ./pseudo/N.pbesol-theos.UPF
     MD5 check sum: 1b64827339d390a5a22afef3ff345c9d
     Pseudo is Ultrasoft + core correction, Zval =  5.0
     Generated using "atomic" code by A. Dal Corso  v.5.1
     Using radial grid of 1085 points,  4 beta functions with: 
                l(1) =   0
                l(2) =   0
                l(3) =   1
                l(4) =   1
     Q(r) pseudized with 0 coefficients 


     PseudoPot. # 3 for O  read from file:
     ./pseudo/O.pbesol-n-kjpaw_psl.0.1.UPF
     MD5 check sum: 81d73d1479e654e5638b0319f0d6c2c7
     Pseudo is Projector augmented-wave + core cor, Zval =  6.0
     Generated using "atomic" code by A. Dal Corso  v.6.0 svn rev. 13079
     Shape of augmentation charge: BESSEL
     Using radial grid of 1095 points,  4 beta functions with: 
                l(1) =   0
                l(2) =   0
                l(3) =   1
                l(4) =   1
     Q(r) pseudized with 0 coefficients 


     atomic species   valence    mass     pseudopotential
     Br                7.00    79.90400     Br( 1.00)
     N                 5.00    14.00670     N ( 1.00)
     O                 6.00    15.99940     O ( 1.00)

     Starting magnetic structure 
     atomic species   magnetization
     Br              0.100
     N               0.100
     O               0.100

      6 Sym. Ops. (no inversion) found


                                    s                        frac. trans.

      isym =  1     identity                                     

 cryst.   s( 1) = (     1          0          0      )
                  (     0          1          0      )
                  (     0          0          1      )

 cart.    s( 1) = (  1.0000000  0.0000000  0.0000000 )
                  (  0.0000000  1.0000000 -0.0000000 )
                  ( -0.0000000 -0.0000000  1.0000000 )


      isym =  2     120 deg rotation - cryst. axis [0,0,1]       

 cryst.   s( 2) = (     0          1          0      )
                  (     0          0          1      )
                  (     1          0          0      )

 cart.    s( 2) = ( -0.5000000 -0.8660254  0.0000000 )
                  (  0.8660254 -0.5000000 -0.0000000 )
                  ( -0.0000000  0.0000000  1.0000000 )


      isym =  3     120 deg rotation - cryst. axis [0,0,-1]      

 cryst.   s( 3) = (     0          0          1      )
                  (     1          0          0      )
                  (     0          1          0      )

 cart.    s( 3) = ( -0.5000000  0.8660254  0.0000000 )
                  ( -0.8660254 -0.5000000 -0.0000000 )
                  (  0.0000000 -0.0000000  1.0000000 )


      isym =  4     inv. 180 deg rotation - cart. axis [1,0,0]   

 cryst.   s( 4) = (     0          1          0      )
                  (     1          0          0      )
                  (     0          0          1      )

 cart.    s( 4) = ( -1.0000000  0.0000000  0.0000000 )
                  (  0.0000000  1.0000000 -0.0000000 )
                  (  0.0000000 -0.0000000  1.0000000 )


      isym =  5     inv. 180 deg rotation - cryst. axis [0,1,0]  

 cryst.   s( 5) = (     1          0          0      )
                  (     0          0          1      )
                  (     0          1          0      )

 cart.    s( 5) = (  0.5000000  0.8660254  0.0000000 )
                  (  0.8660254 -0.5000000 -0.0000000 )
                  ( -0.0000000 -0.0000000  1.0000000 )


      isym =  6     inv. 180 deg rotation - cryst. axis [1,1,0]  

 cryst.   s( 6) = (     0          0          1      )
                  (     0          1          0      )
                  (     1          0          0      )

 cart.    s( 6) = (  0.5000000 -0.8660254  0.0000000 )
                  ( -0.8660254 -0.5000000 -0.0000000 )
                  (  0.0000000  0.0000000  1.0000000 )


   Cartesian axes

     site n.     atom                  positions (alat units)
         1        Br     tau(   1) = (  -0.0000000   0.7992896   0.3004730  )
         2        N      tau(   2) = (   0.0000000  -0.0000000   0.0000000  )
         3        O      tau(   3) = (  -0.2906569   0.6314788   0.1545032  )
         4        O      tau(   4) = (   0.2906569   0.6314788   0.1545032  )
         5        O      tau(   5) = (  -0.0000000   1.1349113   0.1545032  )

   Crystallographic axes

     site n.     atom                  positions (cryst. coord.)
         1        Br     tau(   1) = (  0.5000000  0.5000000 -0.5000000  )
         2        N      tau(   2) = (  0.0000000  0.0000000  0.0000000  )
         3        O      tau(   3) = (  0.1391000  0.5590000 -0.4410000  )
         4        O      tau(   4) = (  0.5590000  0.1391000 -0.4410000  )
         5        O      tau(   5) = (  0.5590000  0.5590000 -0.8609000  )

     number of k points=   116  Marzari-Vanderbilt smearing, width (Ry)=  0.0200
                       cart. coord. in units 2pi/alat
        k(    1) = (   0.0000000   0.0000000   0.0000000), wk =   0.0010000
        k(    2) = (  -0.0000000  -0.0834074   0.0554681), wk =   0.0060000
        k(    3) = (  -0.0000000  -0.1668148   0.1109362), wk =   0.0060000
        k(    4) = (  -0.0000000  -0.2502222   0.1664043), wk =   0.0060000
        k(    5) = (  -0.0000000  -0.3336296   0.2218724), wk =   0.0060000
        k(    6) = (   0.0000000   0.4170370  -0.2773405), wk =   0.0030000
        k(    7) = (  -0.0722329  -0.0417037   0.1109362), wk =   0.0060000
        k(    8) = (  -0.0722329  -0.1251111   0.1664043), wk =   0.0120000
        k(    9) = (  -0.0722329  -0.2085185   0.2218724), wk =   0.0120000
        k(   10) = (  -0.0722329  -0.2919259   0.2773405), wk =   0.0120000
        k(   11) = (  -0.0722329   0.4587407  -0.2218724), wk =   0.0120000
        k(   12) = (  -0.0722329   0.3753333  -0.1664043), wk =   0.0120000
        k(   13) = (  -0.0722329   0.2919259  -0.1109362), wk =   0.0120000
        k(   14) = (  -0.0722329   0.2085185  -0.0554681), wk =   0.0120000
        k(   15) = (  -0.0722329   0.1251111   0.0000000), wk =   0.0060000
        k(   16) = (  -0.1444659  -0.0834074   0.2218724), wk =   0.0060000
        k(   17) = (  -0.1444659  -0.1668148   0.2773405), wk =   0.0120000
        k(   18) = (  -0.1444659  -0.2502222   0.3328086), wk =   0.0120000
        k(   19) = (  -0.1444659   0.5004444  -0.1664043), wk =   0.0120000
        k(   20) = (  -0.1444659   0.4170370  -0.1109362), wk =   0.0120000
        k(   21) = (  -0.1444659   0.3336296  -0.0554681), wk =   0.0120000
        k(   22) = (  -0.1444659   0.2502222   0.0000000), wk =   0.0060000
        k(   23) = (  -0.2166988  -0.1251111   0.3328086), wk =   0.0060000
        k(   24) = (  -0.2166988  -0.2085185   0.3882767), wk =   0.0120000
        k(   25) = (  -0.2166988   0.5421481  -0.1109362), wk =   0.0120000
        k(   26) = (  -0.2166988   0.4587407  -0.0554681), wk =   0.0120000
        k(   27) = (  -0.2166988   0.3753333  -0.0000000), wk =   0.0060000
        k(   28) = (  -0.2889317  -0.1668148   0.4437448), wk =   0.0060000
        k(   29) = (  -0.2889317   0.5838518  -0.0554681), wk =   0.0120000
        k(   30) = (  -0.2889317   0.5004444  -0.0000000), wk =   0.0060000
        k(   31) = (   0.3611646   0.2085185  -0.5546810), wk =   0.0030000
        k(   32) = (   0.0000000   0.0000000   0.1664043), wk =   0.0020000
        k(   33) = (   0.0000000  -0.0834074   0.2218724), wk =   0.0060000
        k(   34) = (   0.0000000  -0.1668148   0.2773405), wk =   0.0060000
        k(   35) = (   0.0000000  -0.2502222   0.3328086), wk =   0.0060000
        k(   36) = (   0.0000000   0.5004444  -0.1664043), wk =   0.0060000
        k(   37) = (   0.0000000   0.4170370  -0.1109362), wk =   0.0060000
        k(   38) = (   0.0000000   0.3336296  -0.0554681), wk =   0.0060000
        k(   39) = (   0.0000000   0.2502222   0.0000000), wk =   0.0060000
        k(   40) = (   0.0000000   0.1668148   0.0554681), wk =   0.0060000
        k(   41) = (  -0.0722329  -0.0417037   0.2773405), wk =   0.0060000
        k(   42) = (  -0.0722329  -0.1251111   0.3328086), wk =   0.0120000
        k(   43) = (  -0.0722329  -0.2085185   0.3882767), wk =   0.0120000
        k(   44) = (  -0.0722329   0.5421481  -0.1109362), wk =   0.0120000
        k(   45) = (  -0.0722329   0.4587407  -0.0554681), wk =   0.0120000
        k(   46) = (  -0.0722329   0.3753333  -0.0000000), wk =   0.0120000
        k(   47) = (  -0.0722329   0.2919259   0.0554681), wk =   0.0120000
        k(   48) = (  -0.0722329   0.2085185   0.1109362), wk =   0.0120000
        k(   49) = (  -0.1444659  -0.0834074   0.3882767), wk =   0.0060000
        k(   50) = (  -0.1444659  -0.1668148   0.4437448), wk =   0.0120000
        k(   51) = (  -0.1444659   0.5838518  -0.0554681), wk =   0.0120000
        k(   52) = (  -0.1444659   0.5004444  -0.0000000), wk =   0.0120000
        k(   53) = (  -0.1444659   0.4170370   0.0554681), wk =   0.0120000
        k(   54) = (  -0.1444659   0.3336296   0.1109362), wk =   0.0120000
        k(   55) = (  -0.1444659   0.2502222   0.1664043), wk =   0.0120000
        k(   56) = (  -0.2166988  -0.1251111   0.4992129), wk =   0.0060000
        k(   57) = (  -0.2166988   0.6255555   0.0000000), wk =   0.0120000
        k(   58) = (  -0.2166988   0.5421481   0.0554681), wk =   0.0120000
        k(   59) = (  -0.2166988   0.4587407   0.1109362), wk =   0.0120000
        k(   60) = (  -0.2166988   0.3753333   0.1664043), wk =   0.0120000
        k(   61) = (  -0.2166988   0.2919259   0.2218724), wk =   0.0120000
        k(   62) = (   0.4333976   0.2502222  -0.4992129), wk =   0.0060000
        k(   63) = (   0.4333976   0.1668148  -0.4437448), wk =   0.0120000
        k(   64) = (   0.4333976   0.0834074  -0.3882767), wk =   0.0120000
        k(   65) = (   0.4333976  -0.0000000  -0.3328086), wk =   0.0120000
        k(   66) = (   0.4333976  -0.0834074  -0.2773405), wk =   0.0060000
        k(   67) = (   0.3611646   0.2085185  -0.3882767), wk =   0.0060000
        k(   68) = (   0.3611646   0.1251111  -0.3328086), wk =   0.0120000
        k(   69) = (   0.3611646   0.0417037  -0.2773405), wk =   0.0120000
        k(   70) = (   0.2889317   0.1668148  -0.2773405), wk =   0.0060000
        k(   71) = (   0.2889317   0.0834074  -0.2218724), wk =   0.0120000
        k(   72) = (   0.2166988   0.1251111  -0.1664043), wk =   0.0060000
        k(   73) = (   0.0000000   0.0000000   0.3328086), wk =   0.0020000
        k(   74) = (   0.0000000  -0.0834074   0.3882767), wk =   0.0060000
        k(   75) = (   0.0000000  -0.1668148   0.4437448), wk =   0.0060000
        k(   76) = (   0.0000000   0.5838518  -0.0554681), wk =   0.0060000
        k(   77) = (   0.0000000   0.5004444  -0.0000000), wk =   0.0060000
        k(   78) = (   0.0000000   0.4170370   0.0554681), wk =   0.0060000
        k(   79) = (   0.0000000   0.3336296   0.1109362), wk =   0.0060000
        k(   80) = (  -0.0722329  -0.0417037   0.4437448), wk =   0.0060000
        k(   81) = (  -0.0722329  -0.1251111   0.4992129), wk =   0.0120000
        k(   82) = (  -0.0722329   0.6255555   0.0000000), wk =   0.0120000
        k(   83) = (  -0.0722329   0.5421481   0.0554681), wk =   0.0120000
        k(   84) = (  -0.0722329   0.4587407   0.1109362), wk =   0.0120000
        k(   85) = (  -0.0722329   0.3753333   0.1664043), wk =   0.0120000
        k(   86) = (  -0.1444659  -0.0834074   0.5546810), wk =   0.0060000
        k(   87) = (  -0.1444659   0.6672592   0.0554681), wk =   0.0120000
        k(   88) = (  -0.1444659   0.5838518   0.1109362), wk =   0.0120000
        k(   89) = (  -0.1444659   0.5004444   0.1664043), wk =   0.0120000
        k(   90) = (  -0.1444659   0.4170370   0.2218724), wk =   0.0120000
        k(   91) = (   0.5056305   0.2919259  -0.4437448), wk =   0.0060000
        k(   92) = (   0.5056305   0.2085185  -0.3882767), wk =   0.0120000
        k(   93) = (   0.5056305   0.1251111  -0.3328086), wk =   0.0120000
        k(   94) = (   0.5056305   0.0417037  -0.2773405), wk =   0.0060000
        k(   95) = (   0.4333976   0.2502222  -0.3328086), wk =   0.0060000
        k(   96) = (   0.4333976   0.1668148  -0.2773405), wk =   0.0120000
        k(   97) = (   0.3611646   0.2085185  -0.2218724), wk =   0.0060000
        k(   98) = (  -0.0000000  -0.0000000   0.4992129), wk =   0.0020000
        k(   99) = (  -0.0000000  -0.0834074   0.5546810), wk =   0.0060000
        k(  100) = (  -0.0000000   0.6672592   0.0554681), wk =   0.0060000
        k(  101) = (  -0.0000000   0.5838518   0.1109362), wk =   0.0060000
        k(  102) = (  -0.0000000   0.5004444   0.1664043), wk =   0.0060000
        k(  103) = (  -0.0722329  -0.0417037   0.6101491), wk =   0.0060000
        k(  104) = (  -0.0722329   0.7089629   0.1109362), wk =   0.0120000
        k(  105) = (  -0.0722329   0.6255555   0.1664043), wk =   0.0120000
        k(  106) = (  -0.0722329   0.5421481   0.2218724), wk =   0.0120000
        k(  107) = (   0.5778634   0.3336296  -0.3882767), wk =   0.0060000
        k(  108) = (   0.5778634   0.2502222  -0.3328086), wk =   0.0120000
        k(  109) = (   0.5778634   0.1668148  -0.2773405), wk =   0.0060000
        k(  110) = (   0.5056305   0.2919259  -0.2773405), wk =   0.0060000
        k(  111) = (   0.0000000   0.0000000   0.6656172), wk =   0.0020000
        k(  112) = (   0.0000000   0.7506666   0.1664043), wk =   0.0060000
        k(  113) = (   0.0000000   0.6672592   0.2218724), wk =   0.0060000
        k(  114) = (   0.6500963   0.3753333  -0.3328086), wk =   0.0060000
        k(  115) = (   0.6500963   0.2919259  -0.2773405), wk =   0.0060000
        k(  116) = (   0.0000000   0.0000000  -0.8320215), wk =   0.0010000

                       cryst. coord.
        k(    1) = (   0.0000000   0.0000000   0.0000000), wk =   0.0010000
        k(    2) = (  -0.0000000  -0.0000000   0.1000000), wk =   0.0060000
        k(    3) = (  -0.0000000  -0.0000000   0.2000000), wk =   0.0060000
        k(    4) = (  -0.0000000  -0.0000000   0.3000000), wk =   0.0060000
        k(    5) = (  -0.0000000  -0.0000000   0.4000000), wk =   0.0060000
        k(    6) = (   0.0000000   0.0000000  -0.5000000), wk =   0.0030000
        k(    7) = (  -0.0000000   0.1000000   0.1000000), wk =   0.0060000
        k(    8) = (  -0.0000000   0.1000000   0.2000000), wk =   0.0120000
        k(    9) = (  -0.0000000   0.1000000   0.3000000), wk =   0.0120000
        k(   10) = (  -0.0000000   0.1000000   0.4000000), wk =   0.0120000
        k(   11) = (   0.0000000   0.1000000  -0.5000000), wk =   0.0120000
        k(   12) = (   0.0000000   0.1000000  -0.4000000), wk =   0.0120000
        k(   13) = (   0.0000000   0.1000000  -0.3000000), wk =   0.0120000
        k(   14) = (   0.0000000   0.1000000  -0.2000000), wk =   0.0120000
        k(   15) = (   0.0000000   0.1000000  -0.1000000), wk =   0.0060000
        k(   16) = (  -0.0000000   0.2000000   0.2000000), wk =   0.0060000
        k(   17) = (  -0.0000000   0.2000000   0.3000000), wk =   0.0120000
        k(   18) = (  -0.0000000   0.2000000   0.4000000), wk =   0.0120000
        k(   19) = (   0.0000000   0.2000000  -0.5000000), wk =   0.0120000
        k(   20) = (   0.0000000   0.2000000  -0.4000000), wk =   0.0120000
        k(   21) = (  -0.0000000   0.2000000  -0.3000000), wk =   0.0120000
        k(   22) = (   0.0000000   0.2000000  -0.2000000), wk =   0.0060000
        k(   23) = (  -0.0000000   0.3000000   0.3000000), wk =   0.0060000
        k(   24) = (  -0.0000000   0.3000000   0.4000000), wk =   0.0120000
        k(   25) = (   0.0000000   0.3000000  -0.5000000), wk =   0.0120000
        k(   26) = (  -0.0000000   0.3000000  -0.4000000), wk =   0.0120000
        k(   27) = (  -0.0000000   0.3000000  -0.3000000), wk =   0.0060000
        k(   28) = (  -0.0000000   0.4000000   0.4000000), wk =   0.0060000
        k(   29) = (  -0.0000000   0.4000000  -0.5000000), wk =   0.0120000
        k(   30) = (  -0.0000000   0.4000000  -0.4000000), wk =   0.0060000
        k(   31) = (   0.0000000  -0.5000000  -0.5000000), wk =   0.0030000
        k(   32) = (   0.1000000   0.1000000   0.1000000), wk =   0.0020000
        k(   33) = (   0.1000000   0.1000000   0.2000000), wk =   0.0060000
        k(   34) = (   0.1000000   0.1000000   0.3000000), wk =   0.0060000
        k(   35) = (   0.1000000   0.1000000   0.4000000), wk =   0.0060000
        k(   36) = (   0.1000000   0.1000000  -0.5000000), wk =   0.0060000
        k(   37) = (   0.1000000   0.1000000  -0.4000000), wk =   0.0060000
        k(   38) = (   0.1000000   0.1000000  -0.3000000), wk =   0.0060000
        k(   39) = (   0.1000000   0.1000000  -0.2000000), wk =   0.0060000
        k(   40) = (   0.1000000   0.1000000  -0.1000000), wk =   0.0060000
        k(   41) = (   0.1000000   0.2000000   0.2000000), wk =   0.0060000
        k(   42) = (   0.1000000   0.2000000   0.3000000), wk =   0.0120000
        k(   43) = (   0.1000000   0.2000000   0.4000000), wk =   0.0120000
        k(   44) = (   0.1000000   0.2000000  -0.5000000), wk =   0.0120000
        k(   45) = (   0.1000000   0.2000000  -0.4000000), wk =   0.0120000
        k(   46) = (   0.1000000   0.2000000  -0.3000000), wk =   0.0120000
        k(   47) = (   0.1000000   0.2000000  -0.2000000), wk =   0.0120000
        k(   48) = (   0.1000000   0.2000000  -0.1000000), wk =   0.0120000
        k(   49) = (   0.1000000   0.3000000   0.3000000), wk =   0.0060000
        k(   50) = (   0.1000000   0.3000000   0.4000000), wk =   0.0120000
        k(   51) = (   0.1000000   0.3000000  -0.5000000), wk =   0.0120000
        k(   52) = (   0.1000000   0.3000000  -0.4000000), wk =   0.0120000
        k(   53) = (   0.1000000   0.3000000  -0.3000000), wk =   0.0120000
        k(   54) = (   0.1000000   0.3000000  -0.2000000), wk =   0.0120000
        k(   55) = (   0.1000000   0.3000000  -0.1000000), wk =   0.0120000
        k(   56) = (   0.1000000   0.4000000   0.4000000), wk =   0.0060000
        k(   57) = (   0.1000000   0.4000000  -0.5000000), wk =   0.0120000
        k(   58) = (   0.1000000   0.4000000  -0.4000000), wk =   0.0120000
        k(   59) = (   0.1000000   0.4000000  -0.3000000), wk =   0.0120000
        k(   60) = (   0.1000000   0.4000000  -0.2000000), wk =   0.0120000
        k(   61) = (   0.1000000   0.4000000  -0.1000000), wk =   0.0120000
        k(   62) = (   0.1000000  -0.5000000  -0.5000000), wk =   0.0060000
        k(   63) = (   0.1000000  -0.5000000  -0.4000000), wk =   0.0120000
        k(   64) = (   0.1000000  -0.5000000  -0.3000000), wk =   0.0120000
        k(   65) = (   0.1000000  -0.5000000  -0.2000000), wk =   0.0120000
        k(   66) = (   0.1000000  -0.5000000  -0.1000000), wk =   0.0060000
        k(   67) = (   0.1000000  -0.4000000  -0.4000000), wk =   0.0060000
        k(   68) = (   0.1000000  -0.4000000  -0.3000000), wk =   0.0120000
        k(   69) = (   0.1000000  -0.4000000  -0.2000000), wk =   0.0120000
        k(   70) = (   0.1000000  -0.3000000  -0.3000000), wk =   0.0060000
        k(   71) = (   0.1000000  -0.3000000  -0.2000000), wk =   0.0120000
        k(   72) = (   0.1000000  -0.2000000  -0.2000000), wk =   0.0060000
        k(   73) = (   0.2000000   0.2000000   0.2000000), wk =   0.0020000
        k(   74) = (   0.2000000   0.2000000   0.3000000), wk =   0.0060000
        k(   75) = (   0.2000000   0.2000000   0.4000000), wk =   0.0060000
        k(   76) = (   0.2000000   0.2000000  -0.5000000), wk =   0.0060000
        k(   77) = (   0.2000000   0.2000000  -0.4000000), wk =   0.0060000
        k(   78) = (   0.2000000   0.2000000  -0.3000000), wk =   0.0060000
        k(   79) = (   0.2000000   0.2000000  -0.2000000), wk =   0.0060000
        k(   80) = (   0.2000000   0.3000000   0.3000000), wk =   0.0060000
        k(   81) = (   0.2000000   0.3000000   0.4000000), wk =   0.0120000
        k(   82) = (   0.2000000   0.3000000  -0.5000000), wk =   0.0120000
        k(   83) = (   0.2000000   0.3000000  -0.4000000), wk =   0.0120000
        k(   84) = (   0.2000000   0.3000000  -0.3000000), wk =   0.0120000
        k(   85) = (   0.2000000   0.3000000  -0.2000000), wk =   0.0120000
        k(   86) = (   0.2000000   0.4000000   0.4000000), wk =   0.0060000
        k(   87) = (   0.2000000   0.4000000  -0.5000000), wk =   0.0120000
        k(   88) = (   0.2000000   0.4000000  -0.4000000), wk =   0.0120000
        k(   89) = (   0.2000000   0.4000000  -0.3000000), wk =   0.0120000
        k(   90) = (   0.2000000   0.4000000  -0.2000000), wk =   0.0120000
        k(   91) = (   0.2000000  -0.5000000  -0.5000000), wk =   0.0060000
        k(   92) = (   0.2000000  -0.5000000  -0.4000000), wk =   0.0120000
        k(   93) = (   0.2000000  -0.5000000  -0.3000000), wk =   0.0120000
        k(   94) = (   0.2000000  -0.5000000  -0.2000000), wk =   0.0060000
        k(   95) = (   0.2000000  -0.4000000  -0.4000000), wk =   0.0060000
        k(   96) = (   0.2000000  -0.4000000  -0.3000000), wk =   0.0120000
        k(   97) = (   0.2000000  -0.3000000  -0.3000000), wk =   0.0060000
        k(   98) = (   0.3000000   0.3000000   0.3000000), wk =   0.0020000
        k(   99) = (   0.3000000   0.3000000   0.4000000), wk =   0.0060000
        k(  100) = (   0.3000000   0.3000000  -0.5000000), wk =   0.0060000
        k(  101) = (   0.3000000   0.3000000  -0.4000000), wk =   0.0060000
        k(  102) = (   0.3000000   0.3000000  -0.3000000), wk =   0.0060000
        k(  103) = (   0.3000000   0.4000000   0.4000000), wk =   0.0060000
        k(  104) = (   0.3000000   0.4000000  -0.5000000), wk =   0.0120000
        k(  105) = (   0.3000000   0.4000000  -0.4000000), wk =   0.0120000
        k(  106) = (   0.3000000   0.4000000  -0.3000000), wk =   0.0120000
        k(  107) = (   0.3000000  -0.5000000  -0.5000000), wk =   0.0060000
        k(  108) = (   0.3000000  -0.5000000  -0.4000000), wk =   0.0120000
        k(  109) = (   0.3000000  -0.5000000  -0.3000000), wk =   0.0060000
        k(  110) = (   0.3000000  -0.4000000  -0.4000000), wk =   0.0060000
        k(  111) = (   0.4000000   0.4000000   0.4000000), wk =   0.0020000
        k(  112) = (   0.4000000   0.4000000  -0.5000000), wk =   0.0060000
        k(  113) = (   0.4000000   0.4000000  -0.4000000), wk =   0.0060000
        k(  114) = (   0.4000000  -0.5000000  -0.5000000), wk =   0.0060000
        k(  115) = (   0.4000000  -0.5000000  -0.4000000), wk =   0.0060000
        k(  116) = (  -0.5000000  -0.5000000  -0.5000000), wk =   0.0010000

     Dense  grid:   107339 G-vectors     FFT dimensions: (  60,  60,  60)

     Smooth grid:    37897 G-vectors     FFT dimensions: (  45,  45,  45)

     Dynamical RAM for                 wfc:       0.17 MB

     Dynamical RAM for     wfc (w. buffer):       6.01 MB

     Dynamical RAM for           str. fact:       0.61 MB

     Dynamical RAM for           local pot:       0.00 MB

     Dynamical RAM for          nlocal pot:       0.45 MB

     Dynamical RAM for                qrad:       5.27 MB

     Dynamical RAM for          rho,v,vnew:       2.55 MB

     Dynamical RAM for               rhoin:       0.85 MB

     Dynamical RAM for            rho*nmix:       6.55 MB

     Dynamical RAM for           G-vectors:       0.80 MB

     Dynamical RAM for          h,s,v(r/c):       0.07 MB

     Dynamical RAM for          <psi|beta>:       0.01 MB

     Dynamical RAM for                 psi:       0.34 MB

     Dynamical RAM for                hpsi:       0.34 MB

     Dynamical RAM for                spsi:       0.34 MB

     Dynamical RAM for      wfcinit/wfcrot:       0.37 MB

     Dynamical RAM for           addusdens:       5.91 MB

     Dynamical RAM for          addusforce:       5.87 MB

     Dynamical RAM for         addusstress:       6.10 MB

     Estimated static dynamical RAM per process >      18.68 MB

     Estimated max dynamical RAM per process >      31.33 MB

     Estimated total dynamical RAM >       1.41 GB
     Generating pointlists ...
     new r_m :   0.1510 (alat units)  1.2773 (a.u.) for type    1
     new r_m :   0.2655 (alat units)  2.2463 (a.u.) for type    2
     new r_m :   0.1510 (alat units)  1.2773 (a.u.) for type    3

     Initial potential from superposition of free atoms

     starting charge      30.0000, renormalised to      30.0000
     Starting wfcs are   20 randomized atomic wfcs
     Checking if some PAW data can be deallocated... 
       PAW data deallocated on   23 nodes for type:  3

     total cpu time spent up to now is        1.6 secs

     per-process dynamical memory:    28.7 Mb

     Self-consistent Calculation

     iteration #  1     ecut=    60.00 Ry     beta= 0.40
     Davidson diagonalization with overlap

---- Real-time Memory Report at c_bands before calling an iterative solver
            64 MiB given to the printing process from OS
            28 MiB allocation reported by mallinfo(arena+hblkhd)
        489019 MiB available memory on the node where the printing process lives
------------------
     ethr =  1.00E-02,  avg # of iterations =  2.3

     total cpu time spent up to now is        2.5 secs

     total energy              =    -182.15961431 Ry
     estimated scf accuracy    <       2.10198881 Ry

     total magnetization       =     1.98 Bohr mag/cell
     absolute magnetization    =     2.08 Bohr mag/cell

     iteration #  2     ecut=    60.00 Ry     beta= 0.40
     Davidson diagonalization with overlap

---- Real-time Memory Report at c_bands before calling an iterative solver
            74 MiB given to the printing process from OS
            36 MiB allocation reported by mallinfo(arena+hblkhd)
        488622 MiB available memory on the node where the printing process lives
------------------
     ethr =  7.01E-03,  avg # of iterations =  3.1

     total cpu time spent up to now is        3.5 secs

     total energy              =    -182.13641413 Ry
     estimated scf accuracy    <       7.52509255 Ry

     total magnetization       =     1.87 Bohr mag/cell
     absolute magnetization    =     1.95 Bohr mag/cell

     iteration #  3     ecut=    60.00 Ry     beta= 0.40
     Davidson diagonalization with overlap

---- Real-time Memory Report at c_bands before calling an iterative solver
            75 MiB given to the printing process from OS
            36 MiB allocation reported by mallinfo(arena+hblkhd)
        488615 MiB available memory on the node where the printing process lives
------------------
     ethr =  7.01E-03,  avg # of iterations =  2.0

     total cpu time spent up to now is        4.3 secs

     total energy              =    -183.02228766 Ry
     estimated scf accuracy    <       0.51257197 Ry

     total magnetization       =     2.00 Bohr mag/cell
     absolute magnetization    =     2.10 Bohr mag/cell

     iteration #  4     ecut=    60.00 Ry     beta= 0.40
     Davidson diagonalization with overlap

---- Real-time Memory Report at c_bands before calling an iterative solver
            75 MiB given to the printing process from OS
            36 MiB allocation reported by mallinfo(arena+hblkhd)
        488601 MiB available memory on the node where the printing process lives
------------------
     ethr =  1.71E-03,  avg # of iterations =  2.0

     total cpu time spent up to now is        5.1 secs

     total energy              =    -182.98067282 Ry
     estimated scf accuracy    <       0.32266317 Ry

     total magnetization       =     1.86 Bohr mag/cell
     absolute magnetization    =     2.01 Bohr mag/cell

     iteration #  5     ecut=    60.00 Ry     beta= 0.40
     Davidson diagonalization with overlap

---- Real-time Memory Report at c_bands before calling an iterative solver
            76 MiB given to the printing process from OS
            37 MiB allocation reported by mallinfo(arena+hblkhd)
        488594 MiB available memory on the node where the printing process lives
------------------
     ethr =  1.08E-03,  avg # of iterations =  1.5

     total cpu time spent up to now is        6.0 secs

     total energy              =    -183.13034988 Ry
     estimated scf accuracy    <       0.36112001 Ry

     total magnetization       =     3.39 Bohr mag/cell
     absolute magnetization    =     3.39 Bohr mag/cell

     iteration #  6     ecut=    60.00 Ry     beta= 0.40
     Davidson diagonalization with overlap

---- Real-time Memory Report at c_bands before calling an iterative solver
            76 MiB given to the printing process from OS
            37 MiB allocation reported by mallinfo(arena+hblkhd)
        488587 MiB available memory on the node where the printing process lives
------------------
     ethr =  1.08E-03,  avg # of iterations =  1.0

     total cpu time spent up to now is        6.7 secs

     total energy              =    -183.13442932 Ry
     estimated scf accuracy    <       0.31641207 Ry

     total magnetization       =     3.42 Bohr mag/cell
     absolute magnetization    =     3.42 Bohr mag/cell

     iteration #  7     ecut=    60.00 Ry     beta= 0.40
     Davidson diagonalization with overlap

---- Real-time Memory Report at c_bands before calling an iterative solver
            77 MiB given to the printing process from OS
            37 MiB allocation reported by mallinfo(arena+hblkhd)
        488581 MiB available memory on the node where the printing process lives
------------------
     ethr =  1.05E-03,  avg # of iterations =  1.0

     total cpu time spent up to now is        7.5 secs

     total energy              =    -183.23337681 Ry
     estimated scf accuracy    <       0.43282507 Ry

     total magnetization       =     3.32 Bohr mag/cell
     absolute magnetization    =     3.32 Bohr mag/cell

     iteration #  8     ecut=    60.00 Ry     beta= 0.40
     Davidson diagonalization with overlap

---- Real-time Memory Report at c_bands before calling an iterative solver
            77 MiB given to the printing process from OS
            38 MiB allocation reported by mallinfo(arena+hblkhd)
        488571 MiB available memory on the node where the printing process lives
------------------
     ethr =  1.05E-03,  avg # of iterations =  1.5

     total cpu time spent up to now is        8.3 secs

     total energy              =    -183.18881522 Ry
     estimated scf accuracy    <       0.48389266 Ry

     total magnetization       =     3.48 Bohr mag/cell
     absolute magnetization    =     3.48 Bohr mag/cell

     iteration #  9     ecut=    60.00 Ry     beta= 0.40
     Davidson diagonalization with overlap

---- Real-time Memory Report at c_bands before calling an iterative solver
            77 MiB given to the printing process from OS
            38 MiB allocation reported by mallinfo(arena+hblkhd)
        488565 MiB available memory on the node where the printing process lives
------------------
     ethr =  1.05E-03,  avg # of iterations =  1.0

     total cpu time spent up to now is        9.0 secs

     total energy              =    -183.17895358 Ry
     estimated scf accuracy    <       0.21581466 Ry

     total magnetization       =     3.71 Bohr mag/cell
     absolute magnetization    =     3.71 Bohr mag/cell

     iteration # 10     ecut=    60.00 Ry     beta= 0.40
     Davidson diagonalization with overlap

---- Real-time Memory Report at c_bands before calling an iterative solver
            78 MiB given to the printing process from OS
            38 MiB allocation reported by mallinfo(arena+hblkhd)
        488560 MiB available memory on the node where the printing process lives
------------------
     ethr =  7.19E-04,  avg # of iterations =  1.0

     total cpu time spent up to now is        9.8 secs

     total energy              =    -183.18309779 Ry
     estimated scf accuracy    <       0.15005859 Ry

     total magnetization       =     3.85 Bohr mag/cell
     absolute magnetization    =     3.85 Bohr mag/cell

     iteration # 11     ecut=    60.00 Ry     beta= 0.40
     Davidson diagonalization with overlap

---- Real-time Memory Report at c_bands before calling an iterative solver
            78 MiB given to the printing process from OS
            38 MiB allocation reported by mallinfo(arena+hblkhd)
        488557 MiB available memory on the node where the printing process lives
------------------
     ethr =  5.00E-04,  avg # of iterations =  1.0

     total cpu time spent up to now is       10.5 secs

     total energy              =    -183.17393198 Ry
     estimated scf accuracy    <       0.15586043 Ry

     total magnetization       =     3.83 Bohr mag/cell
     absolute magnetization    =     3.84 Bohr mag/cell

     iteration # 12     ecut=    60.00 Ry     beta= 0.40
     Davidson diagonalization with overlap

---- Real-time Memory Report at c_bands before calling an iterative solver
            78 MiB given to the printing process from OS
            38 MiB allocation reported by mallinfo(arena+hblkhd)
        488554 MiB available memory on the node where the printing process lives
------------------
     ethr =  5.00E-04,  avg # of iterations =  1.0

     total cpu time spent up to now is       11.3 secs

     total energy              =    -183.15446338 Ry
     estimated scf accuracy    <       0.12825495 Ry

     total magnetization       =     3.91 Bohr mag/cell
     absolute magnetization    =     3.92 Bohr mag/cell

     iteration # 13     ecut=    60.00 Ry     beta= 0.40
     Davidson diagonalization with overlap

---- Real-time Memory Report at c_bands before calling an iterative solver
            78 MiB given to the printing process from OS
            38 MiB allocation reported by mallinfo(arena+hblkhd)
        488552 MiB available memory on the node where the printing process lives
------------------
     ethr =  4.28E-04,  avg # of iterations =  1.0

     total cpu time spent up to now is       12.0 secs

     total energy              =    -183.12253025 Ry
     estimated scf accuracy    <       0.07741469 Ry

     total magnetization       =     4.07 Bohr mag/cell
     absolute magnetization    =     4.08 Bohr mag/cell

     iteration # 14     ecut=    60.00 Ry     beta= 0.40
     Davidson diagonalization with overlap

---- Real-time Memory Report at c_bands before calling an iterative solver
            78 MiB given to the printing process from OS
            38 MiB allocation reported by mallinfo(arena+hblkhd)
        488550 MiB available memory on the node where the printing process lives
------------------
     ethr =  2.58E-04,  avg # of iterations =  2.0

     total cpu time spent up to now is       12.9 secs

     total energy              =    -183.12487339 Ry
     estimated scf accuracy    <       0.03157967 Ry

     total magnetization       =     4.30 Bohr mag/cell
     absolute magnetization    =     4.33 Bohr mag/cell

     iteration # 15     ecut=    60.00 Ry     beta= 0.40
     Davidson diagonalization with overlap

---- Real-time Memory Report at c_bands before calling an iterative solver
            78 MiB given to the printing process from OS
            38 MiB allocation reported by mallinfo(arena+hblkhd)
        488548 MiB available memory on the node where the printing process lives
------------------
     ethr =  1.05E-04,  avg # of iterations =  1.4

     total cpu time spent up to now is       13.6 secs

     total energy              =    -183.13653452 Ry
     estimated scf accuracy    <       0.01268006 Ry

     total magnetization       =     4.02 Bohr mag/cell
     absolute magnetization    =     4.07 Bohr mag/cell

     iteration # 16     ecut=    60.00 Ry     beta= 0.40
     Davidson diagonalization with overlap

---- Real-time Memory Report at c_bands before calling an iterative solver
            78 MiB given to the printing process from OS
            38 MiB allocation reported by mallinfo(arena+hblkhd)
        488545 MiB available memory on the node where the printing process lives
------------------
     ethr =  4.23E-05,  avg # of iterations =  2.6

     total cpu time spent up to now is       14.6 secs

     total energy              =    -183.12565230 Ry
     estimated scf accuracy    <       0.03606703 Ry

     total magnetization       =     4.17 Bohr mag/cell
     absolute magnetization    =     4.20 Bohr mag/cell

     iteration # 17     ecut=    60.00 Ry     beta= 0.40
     Davidson diagonalization with overlap

---- Real-time Memory Report at c_bands before calling an iterative solver
            78 MiB given to the printing process from OS
            38 MiB allocation reported by mallinfo(arena+hblkhd)
        488541 MiB available memory on the node where the printing process lives
------------------
     ethr =  4.23E-05,  avg # of iterations =  2.9

     total cpu time spent up to now is       15.6 secs

     total energy              =    -183.11805100 Ry
     estimated scf accuracy    <       0.02233078 Ry

     total magnetization       =     3.25 Bohr mag/cell
     absolute magnetization    =     3.32 Bohr mag/cell

     iteration # 18     ecut=    60.00 Ry     beta= 0.40
     Davidson diagonalization with overlap

---- Real-time Memory Report at c_bands before calling an iterative solver
            78 MiB given to the printing process from OS
            38 MiB allocation reported by mallinfo(arena+hblkhd)
        488539 MiB available memory on the node where the printing process lives
------------------
     ethr =  4.23E-05,  avg # of iterations =  3.1

     total cpu time spent up to now is       16.6 secs

     total energy              =    -183.14329523 Ry
     estimated scf accuracy    <       0.05649780 Ry

     total magnetization       =     4.04 Bohr mag/cell
     absolute magnetization    =     4.06 Bohr mag/cell

     iteration # 19     ecut=    60.00 Ry     beta= 0.40
     Davidson diagonalization with overlap

---- Real-time Memory Report at c_bands before calling an iterative solver
            78 MiB given to the printing process from OS
            38 MiB allocation reported by mallinfo(arena+hblkhd)
        488535 MiB available memory on the node where the printing process lives
------------------
     ethr =  4.23E-05,  avg # of iterations =  1.3

     total cpu time spent up to now is       17.4 secs

     total energy              =    -183.13285587 Ry
     estimated scf accuracy    <       0.05076768 Ry

     total magnetization       =     4.07 Bohr mag/cell
     absolute magnetization    =     4.09 Bohr mag/cell

     iteration # 20     ecut=    60.00 Ry     beta= 0.40
     Davidson diagonalization with overlap

---- Real-time Memory Report at c_bands before calling an iterative solver
            78 MiB given to the printing process from OS
            38 MiB allocation reported by mallinfo(arena+hblkhd)
        488537 MiB available memory on the node where the printing process lives
------------------
     ethr =  4.23E-05,  avg # of iterations =  2.2

     total cpu time spent up to now is       18.3 secs

     total energy              =    -183.13610719 Ry
     estimated scf accuracy    <       0.03639203 Ry

     total magnetization       =     4.12 Bohr mag/cell
     absolute magnetization    =     4.15 Bohr mag/cell

     iteration # 21     ecut=    60.00 Ry     beta= 0.40
     Davidson diagonalization with overlap

---- Real-time Memory Report at c_bands before calling an iterative solver
            79 MiB given to the printing process from OS
            38 MiB allocation reported by mallinfo(arena+hblkhd)
        488536 MiB available memory on the node where the printing process lives
------------------
     ethr =  4.23E-05,  avg # of iterations =  1.2

     total cpu time spent up to now is       19.0 secs

     total energy              =    -183.12630966 Ry
     estimated scf accuracy    <       0.04120252 Ry

     total magnetization       =     4.10 Bohr mag/cell
     absolute magnetization    =     4.12 Bohr mag/cell

     iteration # 22     ecut=    60.00 Ry     beta= 0.40
     Davidson diagonalization with overlap

---- Real-time Memory Report at c_bands before calling an iterative solver
            79 MiB given to the printing process from OS
            38 MiB allocation reported by mallinfo(arena+hblkhd)
        488535 MiB available memory on the node where the printing process lives
------------------
     ethr =  4.23E-05,  avg # of iterations =  2.0

     total cpu time spent up to now is       19.9 secs

     total energy              =    -183.12933361 Ry
     estimated scf accuracy    <       0.00048732 Ry

     total magnetization       =     3.47 Bohr mag/cell
     absolute magnetization    =     3.52 Bohr mag/cell

     iteration # 23     ecut=    60.00 Ry     beta= 0.40
     Davidson diagonalization with overlap

---- Real-time Memory Report at c_bands before calling an iterative solver
            79 MiB given to the printing process from OS
            38 MiB allocation reported by mallinfo(arena+hblkhd)
        488534 MiB available memory on the node where the printing process lives
------------------
     c_bands:  1 eigenvalues not converged
     c_bands:  1 eigenvalues not converged
     c_bands:  1 eigenvalues not converged
     ethr =  1.62E-06,  avg # of iterations = 13.5

     total cpu time spent up to now is       21.7 secs

     total energy              =    -183.12561253 Ry
     estimated scf accuracy    <       0.07552515 Ry

     total magnetization       =     2.75 Bohr mag/cell
     absolute magnetization    =     2.84 Bohr mag/cell

     iteration # 24     ecut=    60.00 Ry     beta= 0.40
     Davidson diagonalization with overlap

---- Real-time Memory Report at c_bands before calling an iterative solver
            79 MiB given to the printing process from OS
            38 MiB allocation reported by mallinfo(arena+hblkhd)
        488532 MiB available memory on the node where the printing process lives
------------------
     ethr =  1.62E-06,  avg # of iterations =  4.2

     total cpu time spent up to now is       22.9 secs

     total energy              =    -183.12901858 Ry
     estimated scf accuracy    <       0.00009263 Ry

     total magnetization       =     3.53 Bohr mag/cell
     absolute magnetization    =     3.58 Bohr mag/cell

     iteration # 25     ecut=    60.00 Ry     beta= 0.40
     Davidson diagonalization with overlap

---- Real-time Memory Report at c_bands before calling an iterative solver
            79 MiB given to the printing process from OS
            38 MiB allocation reported by mallinfo(arena+hblkhd)
        488522 MiB available memory on the node where the printing process lives
------------------
     ethr =  3.09E-07,  avg # of iterations =  2.1

     total cpu time spent up to now is       23.7 secs

     total energy              =    -183.12930008 Ry
     estimated scf accuracy    <       0.00045960 Ry

     total magnetization       =     3.57 Bohr mag/cell
     absolute magnetization    =     3.62 Bohr mag/cell

     iteration # 26     ecut=    60.00 Ry     beta= 0.40
     Davidson diagonalization with overlap

---- Real-time Memory Report at c_bands before calling an iterative solver
            79 MiB given to the printing process from OS
            38 MiB allocation reported by mallinfo(arena+hblkhd)
        488522 MiB available memory on the node where the printing process lives
------------------
     ethr =  3.09E-07,  avg # of iterations =  3.4

     total cpu time spent up to now is       24.8 secs

     total energy              =    -183.12902076 Ry
     estimated scf accuracy    <       0.00909953 Ry

     total magnetization       =     3.79 Bohr mag/cell
     absolute magnetization    =     3.82 Bohr mag/cell

     iteration # 27     ecut=    60.00 Ry     beta= 0.40
     Davidson diagonalization with overlap

---- Real-time Memory Report at c_bands before calling an iterative solver
            79 MiB given to the printing process from OS
            38 MiB allocation reported by mallinfo(arena+hblkhd)
        488522 MiB available memory on the node where the printing process lives
------------------
     ethr =  3.09E-07,  avg # of iterations =  2.0

     total cpu time spent up to now is       25.7 secs

     total energy              =    -183.12921318 Ry
     estimated scf accuracy    <       0.00223148 Ry

     total magnetization       =     3.64 Bohr mag/cell
     absolute magnetization    =     3.68 Bohr mag/cell

     iteration # 28     ecut=    60.00 Ry     beta= 0.40
     Davidson diagonalization with overlap

---- Real-time Memory Report at c_bands before calling an iterative solver
            79 MiB given to the printing process from OS
            38 MiB allocation reported by mallinfo(arena+hblkhd)
        488522 MiB available memory on the node where the printing process lives
------------------
     ethr =  3.09E-07,  avg # of iterations =  1.0

     total cpu time spent up to now is       26.4 secs

     total energy              =    -183.12926884 Ry
     estimated scf accuracy    <       0.00282913 Ry

     total magnetization       =     3.65 Bohr mag/cell
     absolute magnetization    =     3.69 Bohr mag/cell

     iteration # 29     ecut=    60.00 Ry     beta= 0.40
     Davidson diagonalization with overlap

---- Real-time Memory Report at c_bands before calling an iterative solver
            79 MiB given to the printing process from OS
            38 MiB allocation reported by mallinfo(arena+hblkhd)
        488522 MiB available memory on the node where the printing process lives
------------------
     ethr =  3.09E-07,  avg # of iterations =  1.0

     total cpu time spent up to now is       27.2 secs

     total energy              =    -183.12930346 Ry
     estimated scf accuracy    <       0.00376058 Ry

     total magnetization       =     3.68 Bohr mag/cell
     absolute magnetization    =     3.72 Bohr mag/cell

     iteration # 30     ecut=    60.00 Ry     beta= 0.40
     Davidson diagonalization with overlap

---- Real-time Memory Report at c_bands before calling an iterative solver
            79 MiB given to the printing process from OS
            38 MiB allocation reported by mallinfo(arena+hblkhd)
        488521 MiB available memory on the node where the printing process lives
------------------
     ethr =  3.09E-07,  avg # of iterations =  1.0

     total cpu time spent up to now is       27.9 secs

     total energy              =    -183.12910237 Ry
     estimated scf accuracy    <       0.00419612 Ry

     total magnetization       =     3.69 Bohr mag/cell
     absolute magnetization    =     3.73 Bohr mag/cell

     iteration # 31     ecut=    60.00 Ry     beta= 0.40
     Davidson diagonalization with overlap

---- Real-time Memory Report at c_bands before calling an iterative solver
            79 MiB given to the printing process from OS
            38 MiB allocation reported by mallinfo(arena+hblkhd)
        488521 MiB available memory on the node where the printing process lives
------------------
     ethr =  3.09E-07,  avg # of iterations =  1.0

     total cpu time spent up to now is       28.6 secs

     total energy              =    -183.12909831 Ry
     estimated scf accuracy    <       0.00157525 Ry

     total magnetization       =     3.61 Bohr mag/cell
     absolute magnetization    =     3.65 Bohr mag/cell

     iteration # 32     ecut=    60.00 Ry     beta= 0.40
     Davidson diagonalization with overlap

---- Real-time Memory Report at c_bands before calling an iterative solver
            79 MiB given to the printing process from OS
            38 MiB allocation reported by mallinfo(arena+hblkhd)
        488517 MiB available memory on the node where the printing process lives
------------------
     ethr =  3.09E-07,  avg # of iterations =  1.0

     total cpu time spent up to now is       29.4 secs

     total energy              =    -183.12894669 Ry
     estimated scf accuracy    <       0.00089475 Ry

     total magnetization       =     3.57 Bohr mag/cell
     absolute magnetization    =     3.61 Bohr mag/cell

     iteration # 33     ecut=    60.00 Ry     beta= 0.40
     Davidson diagonalization with overlap

---- Real-time Memory Report at c_bands before calling an iterative solver
            79 MiB given to the printing process from OS
            38 MiB allocation reported by mallinfo(arena+hblkhd)
        488516 MiB available memory on the node where the printing process lives
------------------
     ethr =  3.09E-07,  avg # of iterations =  1.5

     total cpu time spent up to now is       30.3 secs

     total energy              =    -183.12906762 Ry
     estimated scf accuracy    <       0.00018646 Ry

     total magnetization       =     3.40 Bohr mag/cell
     absolute magnetization    =     3.44 Bohr mag/cell

     iteration # 34     ecut=    60.00 Ry     beta= 0.40
     Davidson diagonalization with overlap

---- Real-time Memory Report at c_bands before calling an iterative solver
            79 MiB given to the printing process from OS
            38 MiB allocation reported by mallinfo(arena+hblkhd)
        488557 MiB available memory on the node where the printing process lives
------------------
     ethr =  3.09E-07,  avg # of iterations =  1.0

     total cpu time spent up to now is       31.0 secs

     total energy              =    -183.12907736 Ry
     estimated scf accuracy    <       0.00000316 Ry

     total magnetization       =     3.44 Bohr mag/cell
     absolute magnetization    =     3.48 Bohr mag/cell

     iteration # 35     ecut=    60.00 Ry     beta= 0.40
     Davidson diagonalization with overlap

---- Real-time Memory Report at c_bands before calling an iterative solver
            79 MiB given to the printing process from OS
            38 MiB allocation reported by mallinfo(arena+hblkhd)
        488557 MiB available memory on the node where the printing process lives
------------------
     ethr =  1.05E-08,  avg # of iterations =  5.6

     total cpu time spent up to now is       32.4 secs

     total energy              =    -183.12908547 Ry
     estimated scf accuracy    <       0.00000443 Ry

     total magnetization       =     3.41 Bohr mag/cell
     absolute magnetization    =     3.45 Bohr mag/cell

     iteration # 36     ecut=    60.00 Ry     beta= 0.40
     Davidson diagonalization with overlap

---- Real-time Memory Report at c_bands before calling an iterative solver
            79 MiB given to the printing process from OS
            38 MiB allocation reported by mallinfo(arena+hblkhd)
        488557 MiB available memory on the node where the printing process lives
------------------
     ethr =  1.05E-08,  avg # of iterations =  1.7

     total cpu time spent up to now is       33.3 secs

     total energy              =    -183.12908619 Ry
     estimated scf accuracy    <       0.00000037 Ry

     total magnetization       =     3.41 Bohr mag/cell
     absolute magnetization    =     3.45 Bohr mag/cell

     iteration # 37     ecut=    60.00 Ry     beta= 0.40
     Davidson diagonalization with overlap

---- Real-time Memory Report at c_bands before calling an iterative solver
            79 MiB given to the printing process from OS
            38 MiB allocation reported by mallinfo(arena+hblkhd)
        488556 MiB available memory on the node where the printing process lives
------------------
     ethr =  1.25E-09,  avg # of iterations =  6.8

     total cpu time spent up to now is       35.2 secs

     total energy              =    -183.12908860 Ry
     estimated scf accuracy    <       0.00000325 Ry

     total magnetization       =     3.40 Bohr mag/cell
     absolute magnetization    =     3.43 Bohr mag/cell

     iteration # 38     ecut=    60.00 Ry     beta= 0.40
     Davidson diagonalization with overlap

---- Real-time Memory Report at c_bands before calling an iterative solver
            79 MiB given to the printing process from OS
            38 MiB allocation reported by mallinfo(arena+hblkhd)
        488597 MiB available memory on the node where the printing process lives
------------------
     ethr =  1.25E-09,  avg # of iterations =  1.3

     total cpu time spent up to now is       36.0 secs

     total energy              =    -183.12908631 Ry
     estimated scf accuracy    <       0.00000054 Ry

     total magnetization       =     3.40 Bohr mag/cell
     absolute magnetization    =     3.44 Bohr mag/cell

     iteration # 39     ecut=    60.00 Ry     beta= 0.40
     Davidson diagonalization with overlap

---- Real-time Memory Report at c_bands before calling an iterative solver
            79 MiB given to the printing process from OS
            38 MiB allocation reported by mallinfo(arena+hblkhd)
        488596 MiB available memory on the node where the printing process lives
------------------
     ethr =  1.25E-09,  avg # of iterations =  5.9

     total cpu time spent up to now is       37.5 secs

     total energy              =    -183.12908931 Ry
     estimated scf accuracy    <       0.00000009 Ry

     total magnetization       =     3.39 Bohr mag/cell
     absolute magnetization    =     3.42 Bohr mag/cell

     iteration # 40     ecut=    60.00 Ry     beta= 0.40
     Davidson diagonalization with overlap

---- Real-time Memory Report at c_bands before calling an iterative solver
            79 MiB given to the printing process from OS
            38 MiB allocation reported by mallinfo(arena+hblkhd)
        488596 MiB available memory on the node where the printing process lives
------------------
     ethr =  3.01E-10,  avg # of iterations =  7.3

     total cpu time spent up to now is       39.5 secs

     total energy              =    -183.12908015 Ry
     estimated scf accuracy    <       0.00000011 Ry

     total magnetization       =     3.37 Bohr mag/cell
     absolute magnetization    =     3.41 Bohr mag/cell

     iteration # 41     ecut=    60.00 Ry     beta= 0.40
     Davidson diagonalization with overlap

---- Real-time Memory Report at c_bands before calling an iterative solver
            80 MiB given to the printing process from OS
            38 MiB allocation reported by mallinfo(arena+hblkhd)
        488596 MiB available memory on the node where the printing process lives
------------------
     ethr =  3.01E-10,  avg # of iterations =  8.8

     total cpu time spent up to now is       41.7 secs

     total energy              =    -183.12909301 Ry
     estimated scf accuracy    <       0.00000002 Ry

     total magnetization       =     3.35 Bohr mag/cell
     absolute magnetization    =     3.38 Bohr mag/cell

     iteration # 42     ecut=    60.00 Ry     beta= 0.40
     Davidson diagonalization with overlap

---- Real-time Memory Report at c_bands before calling an iterative solver
            80 MiB given to the printing process from OS
            38 MiB allocation reported by mallinfo(arena+hblkhd)
        488590 MiB available memory on the node where the printing process lives
------------------
     ethr =  5.79E-11,  avg # of iterations =  3.6

     total cpu time spent up to now is       43.0 secs

     total energy              =    -183.12909044 Ry
     estimated scf accuracy    <       0.00000001 Ry

     total magnetization       =     3.35 Bohr mag/cell
     absolute magnetization    =     3.38 Bohr mag/cell

     iteration # 43     ecut=    60.00 Ry     beta= 0.40
     Davidson diagonalization with overlap

---- Real-time Memory Report at c_bands before calling an iterative solver
            80 MiB given to the printing process from OS
            38 MiB allocation reported by mallinfo(arena+hblkhd)
        488591 MiB available memory on the node where the printing process lives
------------------
     ethr =  3.72E-11,  avg # of iterations = 10.0

     total cpu time spent up to now is       45.5 secs

     total energy              =    -183.12909328 Ry
     estimated scf accuracy    <       0.00000001 Ry

     total magnetization       =     3.33 Bohr mag/cell
     absolute magnetization    =     3.37 Bohr mag/cell

     iteration # 44     ecut=    60.00 Ry     beta= 0.40
     Davidson diagonalization with overlap

---- Real-time Memory Report at c_bands before calling an iterative solver
            80 MiB given to the printing process from OS
            38 MiB allocation reported by mallinfo(arena+hblkhd)
        488590 MiB available memory on the node where the printing process lives
------------------
     ethr =  3.72E-11,  avg # of iterations =  4.4

     total cpu time spent up to now is       46.8 secs

     total energy              =    -183.12909329 Ry
     estimated scf accuracy    <       0.00000001 Ry

     total magnetization       =     3.33 Bohr mag/cell
     absolute magnetization    =     3.37 Bohr mag/cell

     iteration # 45     ecut=    60.00 Ry     beta= 0.40
     Davidson diagonalization with overlap

---- Real-time Memory Report at c_bands before calling an iterative solver
            80 MiB given to the printing process from OS
            38 MiB allocation reported by mallinfo(arena+hblkhd)
        488589 MiB available memory on the node where the printing process lives
------------------
     ethr =  3.72E-11,  avg # of iterations =  5.9

     total cpu time spent up to now is       48.4 secs

     total energy              =    -183.12909219 Ry
     estimated scf accuracy    <          9.0E-09 Ry

     total magnetization       =     3.33 Bohr mag/cell
     absolute magnetization    =     3.36 Bohr mag/cell

     iteration # 46     ecut=    60.00 Ry     beta= 0.40
     Davidson diagonalization with overlap

---- Real-time Memory Report at c_bands before calling an iterative solver
            80 MiB given to the printing process from OS
            38 MiB allocation reported by mallinfo(arena+hblkhd)
        488585 MiB available memory on the node where the printing process lives
------------------
     ethr =  3.00E-11,  avg # of iterations =  8.8

     total cpu time spent up to now is       50.6 secs

     total energy              =    -183.12909269 Ry
     estimated scf accuracy    <       0.00000001 Ry

     total magnetization       =     3.32 Bohr mag/cell
     absolute magnetization    =     3.35 Bohr mag/cell

     iteration # 47     ecut=    60.00 Ry     beta= 0.40
     Davidson diagonalization with overlap

---- Real-time Memory Report at c_bands before calling an iterative solver
            80 MiB given to the printing process from OS
            38 MiB allocation reported by mallinfo(arena+hblkhd)
        488575 MiB available memory on the node where the printing process lives
------------------
     ethr =  3.00E-11,  avg # of iterations =  8.3

     total cpu time spent up to now is       52.7 secs

     total energy              =    -183.12909130 Ry
     estimated scf accuracy    <          5.0E-09 Ry

     total magnetization       =     3.31 Bohr mag/cell
     absolute magnetization    =     3.35 Bohr mag/cell

     iteration # 48     ecut=    60.00 Ry     beta= 0.40
     Davidson diagonalization with overlap

---- Real-time Memory Report at c_bands before calling an iterative solver
            80 MiB given to the printing process from OS
            38 MiB allocation reported by mallinfo(arena+hblkhd)
        488574 MiB available memory on the node where the printing process lives
------------------
     ethr =  1.67E-11,  avg # of iterations = 10.4

     total cpu time spent up to now is       55.3 secs

     total energy              =    -183.12909361 Ry
     estimated scf accuracy    <          1.8E-09 Ry

     total magnetization       =     3.30 Bohr mag/cell
     absolute magnetization    =     3.34 Bohr mag/cell

     iteration # 49     ecut=    60.00 Ry     beta= 0.40
     Davidson diagonalization with overlap

---- Real-time Memory Report at c_bands before calling an iterative solver
            80 MiB given to the printing process from OS
            38 MiB allocation reported by mallinfo(arena+hblkhd)
        488574 MiB available memory on the node where the printing process lives
------------------
     ethr =  6.15E-12,  avg # of iterations =  1.5

     total cpu time spent up to now is       56.1 secs

     total energy              =    -183.12908057 Ry
     estimated scf accuracy    <          1.4E-09 Ry

     total magnetization       =     3.30 Bohr mag/cell
     absolute magnetization    =     3.34 Bohr mag/cell

     iteration # 50     ecut=    60.00 Ry     beta= 0.40
     Davidson diagonalization with overlap

---- Real-time Memory Report at c_bands before calling an iterative solver
            80 MiB given to the printing process from OS
            38 MiB allocation reported by mallinfo(arena+hblkhd)
        488574 MiB available memory on the node where the printing process lives
------------------
     ethr =  4.74E-12,  avg # of iterations = 15.8

     total cpu time spent up to now is       60.1 secs

     total energy              =    -183.12908666 Ry
     estimated scf accuracy    <       0.00000003 Ry

     total magnetization       =     3.27 Bohr mag/cell
     absolute magnetization    =     3.31 Bohr mag/cell

     iteration # 51     ecut=    60.00 Ry     beta= 0.40
     Davidson diagonalization with overlap

---- Real-time Memory Report at c_bands before calling an iterative solver
            80 MiB given to the printing process from OS
            38 MiB allocation reported by mallinfo(arena+hblkhd)
        488573 MiB available memory on the node where the printing process lives
------------------
     ethr =  4.74E-12,  avg # of iterations = 14.6

     total cpu time spent up to now is       63.6 secs

     total energy              =    -183.12908798 Ry
     estimated scf accuracy    <          4.7E-09 Ry

     total magnetization       =     3.29 Bohr mag/cell
     absolute magnetization    =     3.33 Bohr mag/cell

     iteration # 52     ecut=    60.00 Ry     beta= 0.40
     Davidson diagonalization with overlap

---- Real-time Memory Report at c_bands before calling an iterative solver
            80 MiB given to the printing process from OS
            38 MiB allocation reported by mallinfo(arena+hblkhd)
        488573 MiB available memory on the node where the printing process lives
------------------
     ethr =  4.74E-12,  avg # of iterations = 14.0

     total cpu time spent up to now is       67.1 secs

     total energy              =    -183.12908716 Ry
     estimated scf accuracy    <          5.7E-09 Ry

     total magnetization       =     3.31 Bohr mag/cell
     absolute magnetization    =     3.35 Bohr mag/cell

     iteration # 53     ecut=    60.00 Ry     beta= 0.40
     Davidson diagonalization with overlap

---- Real-time Memory Report at c_bands before calling an iterative solver
            80 MiB given to the printing process from OS
            38 MiB allocation reported by mallinfo(arena+hblkhd)
        488571 MiB available memory on the node where the printing process lives
------------------
     ethr =  4.74E-12,  avg # of iterations = 14.3

     total cpu time spent up to now is       70.5 secs

     total energy              =    -183.12908935 Ry
     estimated scf accuracy    <       0.00000003 Ry

     total magnetization       =     3.33 Bohr mag/cell
     absolute magnetization    =     3.37 Bohr mag/cell

     iteration # 54     ecut=    60.00 Ry     beta= 0.40
     Davidson diagonalization with overlap

---- Real-time Memory Report at c_bands before calling an iterative solver
            80 MiB given to the printing process from OS
            38 MiB allocation reported by mallinfo(arena+hblkhd)
        488569 MiB available memory on the node where the printing process lives
------------------
     ethr =  4.74E-12,  avg # of iterations = 13.6

     total cpu time spent up to now is       73.9 secs

     total energy              =    -183.12909349 Ry
     estimated scf accuracy    <          7.1E-09 Ry

     total magnetization       =     3.31 Bohr mag/cell
     absolute magnetization    =     3.35 Bohr mag/cell

     iteration # 55     ecut=    60.00 Ry     beta= 0.40
     Davidson diagonalization with overlap

---- Real-time Memory Report at c_bands before calling an iterative solver
            80 MiB given to the printing process from OS
            38 MiB allocation reported by mallinfo(arena+hblkhd)
        488568 MiB available memory on the node where the printing process lives
------------------
     ethr =  4.74E-12,  avg # of iterations =  6.4

     total cpu time spent up to now is       75.6 secs

     total energy              =    -183.12909354 Ry
     estimated scf accuracy    <          5.7E-09 Ry

     total magnetization       =     3.31 Bohr mag/cell
     absolute magnetization    =     3.35 Bohr mag/cell

     iteration # 56     ecut=    60.00 Ry     beta= 0.40
     Davidson diagonalization with overlap

---- Real-time Memory Report at c_bands before calling an iterative solver
            80 MiB given to the printing process from OS
            38 MiB allocation reported by mallinfo(arena+hblkhd)
        488568 MiB available memory on the node where the printing process lives
------------------
     ethr =  4.74E-12,  avg # of iterations =  4.0

     total cpu time spent up to now is       76.9 secs

     total energy              =    -183.12909327 Ry
     estimated scf accuracy    <          4.6E-09 Ry

     total magnetization       =     3.31 Bohr mag/cell
     absolute magnetization    =     3.35 Bohr mag/cell

     iteration # 57     ecut=    60.00 Ry     beta= 0.40
     Davidson diagonalization with overlap

---- Real-time Memory Report at c_bands before calling an iterative solver
            80 MiB given to the printing process from OS
            38 MiB allocation reported by mallinfo(arena+hblkhd)
        488568 MiB available memory on the node where the printing process lives
------------------
     ethr =  4.74E-12,  avg # of iterations =  9.8

     total cpu time spent up to now is       79.3 secs

     total energy              =    -183.12909357 Ry
     estimated scf accuracy    <          3.3E-09 Ry

     total magnetization       =     3.31 Bohr mag/cell
     absolute magnetization    =     3.34 Bohr mag/cell

     iteration # 58     ecut=    60.00 Ry     beta= 0.40
     Davidson diagonalization with overlap

---- Real-time Memory Report at c_bands before calling an iterative solver
            80 MiB given to the printing process from OS
            38 MiB allocation reported by mallinfo(arena+hblkhd)
        488568 MiB available memory on the node where the printing process lives
------------------
     ethr =  4.74E-12,  avg # of iterations =  2.5

     total cpu time spent up to now is       80.4 secs

     total energy              =    -183.12909351 Ry
     estimated scf accuracy    <          3.1E-09 Ry

     total magnetization       =     3.31 Bohr mag/cell
     absolute magnetization    =     3.34 Bohr mag/cell

     iteration # 59     ecut=    60.00 Ry     beta= 0.40
     Davidson diagonalization with overlap

---- Real-time Memory Report at c_bands before calling an iterative solver
            80 MiB given to the printing process from OS
            38 MiB allocation reported by mallinfo(arena+hblkhd)
        488568 MiB available memory on the node where the printing process lives
------------------
     ethr =  4.74E-12,  avg # of iterations =  7.6

     total cpu time spent up to now is       82.4 secs

     total energy              =    -183.12909294 Ry
     estimated scf accuracy    <          3.1E-09 Ry

     total magnetization       =     3.30 Bohr mag/cell
     absolute magnetization    =     3.34 Bohr mag/cell

     iteration # 60     ecut=    60.00 Ry     beta= 0.40
     Davidson diagonalization with overlap

---- Real-time Memory Report at c_bands before calling an iterative solver
            80 MiB given to the printing process from OS
            38 MiB allocation reported by mallinfo(arena+hblkhd)
        488567 MiB available memory on the node where the printing process lives
------------------
     ethr =  4.74E-12,  avg # of iterations = 10.3

     total cpu time spent up to now is       85.0 secs

     total energy              =    -183.12908943 Ry
     estimated scf accuracy    <          3.3E-09 Ry

     total magnetization       =     3.30 Bohr mag/cell
     absolute magnetization    =     3.33 Bohr mag/cell

     iteration # 61     ecut=    60.00 Ry     beta= 0.40
     Davidson diagonalization with overlap

---- Real-time Memory Report at c_bands before calling an iterative solver
            80 MiB given to the printing process from OS
            38 MiB allocation reported by mallinfo(arena+hblkhd)
        488567 MiB available memory on the node where the printing process lives
------------------
     ethr =  4.74E-12,  avg # of iterations = 13.4

     total cpu time spent up to now is       88.3 secs

     total energy              =    -183.12909312 Ry
     estimated scf accuracy    <          5.2E-09 Ry

     total magnetization       =     3.31 Bohr mag/cell
     absolute magnetization    =     3.35 Bohr mag/cell

     iteration # 62     ecut=    60.00 Ry     beta= 0.40
     Davidson diagonalization with overlap

---- Real-time Memory Report at c_bands before calling an iterative solver
            80 MiB given to the printing process from OS
            38 MiB allocation reported by mallinfo(arena+hblkhd)
        488567 MiB available memory on the node where the printing process lives
------------------
     ethr =  4.74E-12,  avg # of iterations =  9.6

     total cpu time spent up to now is       90.7 secs

     total energy              =    -183.12909228 Ry
     estimated scf accuracy    <          3.4E-09 Ry

     total magnetization       =     3.31 Bohr mag/cell
     absolute magnetization    =     3.34 Bohr mag/cell

     iteration # 63     ecut=    60.00 Ry     beta= 0.40
     Davidson diagonalization with overlap

---- Real-time Memory Report at c_bands before calling an iterative solver
            80 MiB given to the printing process from OS
            38 MiB allocation reported by mallinfo(arena+hblkhd)
        488563 MiB available memory on the node where the printing process lives
------------------
     ethr =  4.74E-12,  avg # of iterations = 11.4

     total cpu time spent up to now is       93.5 secs

     total energy              =    -183.12909305 Ry
     estimated scf accuracy    <          3.5E-09 Ry

     total magnetization       =     3.30 Bohr mag/cell
     absolute magnetization    =     3.34 Bohr mag/cell

     iteration # 64     ecut=    60.00 Ry     beta= 0.40
     Davidson diagonalization with overlap

---- Real-time Memory Report at c_bands before calling an iterative solver
            80 MiB given to the printing process from OS
            38 MiB allocation reported by mallinfo(arena+hblkhd)
        488563 MiB available memory on the node where the printing process lives
------------------
     ethr =  4.74E-12,  avg # of iterations = 10.0

     total cpu time spent up to now is       96.0 secs

     total energy              =    -183.12909342 Ry
     estimated scf accuracy    <          5.4E-09 Ry

     total magnetization       =     3.29 Bohr mag/cell
     absolute magnetization    =     3.33 Bohr mag/cell

     iteration # 65     ecut=    60.00 Ry     beta= 0.40
     Davidson diagonalization with overlap

---- Real-time Memory Report at c_bands before calling an iterative solver
            80 MiB given to the printing process from OS
            38 MiB allocation reported by mallinfo(arena+hblkhd)
        488602 MiB available memory on the node where the printing process lives
------------------
     ethr =  4.74E-12,  avg # of iterations =  8.1

     total cpu time spent up to now is       98.1 secs

     total energy              =    -183.12908886 Ry
     estimated scf accuracy    <          4.2E-09 Ry

     total magnetization       =     3.30 Bohr mag/cell
     absolute magnetization    =     3.33 Bohr mag/cell

     iteration # 66     ecut=    60.00 Ry     beta= 0.40
     Davidson diagonalization with overlap

---- Real-time Memory Report at c_bands before calling an iterative solver
            80 MiB given to the printing process from OS
            38 MiB allocation reported by mallinfo(arena+hblkhd)
        488602 MiB available memory on the node where the printing process lives
------------------
     ethr =  4.74E-12,  avg # of iterations = 13.7

     total cpu time spent up to now is      101.5 secs

     total energy              =    -183.12908735 Ry
     estimated scf accuracy    <       0.00000002 Ry

     total magnetization       =     3.28 Bohr mag/cell
     absolute magnetization    =     3.32 Bohr mag/cell

     iteration # 67     ecut=    60.00 Ry     beta= 0.40
     Davidson diagonalization with overlap

---- Real-time Memory Report at c_bands before calling an iterative solver
            80 MiB given to the printing process from OS
            38 MiB allocation reported by mallinfo(arena+hblkhd)
        488602 MiB available memory on the node where the printing process lives
------------------
     ethr =  4.74E-12,  avg # of iterations = 14.2

     total cpu time spent up to now is      105.0 secs

     total energy              =    -183.12909361 Ry
     estimated scf accuracy    <          3.4E-09 Ry

     total magnetization       =     3.30 Bohr mag/cell
     absolute magnetization    =     3.33 Bohr mag/cell

     iteration # 68     ecut=    60.00 Ry     beta= 0.40
     Davidson diagonalization with overlap

---- Real-time Memory Report at c_bands before calling an iterative solver
            80 MiB given to the printing process from OS
            38 MiB allocation reported by mallinfo(arena+hblkhd)
        488602 MiB available memory on the node where the printing process lives
------------------
     ethr =  4.74E-12,  avg # of iterations =  1.0

     total cpu time spent up to now is      105.7 secs

     total energy              =    -183.12909353 Ry
     estimated scf accuracy    <          3.7E-09 Ry

     total magnetization       =     3.30 Bohr mag/cell
     absolute magnetization    =     3.33 Bohr mag/cell

     iteration # 69     ecut=    60.00 Ry     beta= 0.40
     Davidson diagonalization with overlap

---- Real-time Memory Report at c_bands before calling an iterative solver
            80 MiB given to the printing process from OS
            38 MiB allocation reported by mallinfo(arena+hblkhd)
        488602 MiB available memory on the node where the printing process lives
------------------
     ethr =  4.74E-12,  avg # of iterations =  7.1

     total cpu time spent up to now is      107.5 secs

     total energy              =    -183.12909362 Ry
     estimated scf accuracy    <          3.9E-09 Ry

     total magnetization       =     3.30 Bohr mag/cell
     absolute magnetization    =     3.33 Bohr mag/cell

     iteration # 70     ecut=    60.00 Ry     beta= 0.40
     Davidson diagonalization with overlap

---- Real-time Memory Report at c_bands before calling an iterative solver
            80 MiB given to the printing process from OS
            38 MiB allocation reported by mallinfo(arena+hblkhd)
        488601 MiB available memory on the node where the printing process lives
------------------
     ethr =  4.74E-12,  avg # of iterations =  2.8

     total cpu time spent up to now is      108.6 secs

     total energy              =    -183.12908981 Ry
     estimated scf accuracy    <          3.9E-09 Ry

     total magnetization       =     3.30 Bohr mag/cell
     absolute magnetization    =     3.33 Bohr mag/cell

     iteration # 71     ecut=    60.00 Ry     beta= 0.40
     Davidson diagonalization with overlap

---- Real-time Memory Report at c_bands before calling an iterative solver
            80 MiB given to the printing process from OS
            38 MiB allocation reported by mallinfo(arena+hblkhd)
[...]

     total energy              =    -183.12909152 Ry
     estimated scf accuracy    <          4.1E-09 Ry

     total magnetization       =     3.30 Bohr mag/cell
     absolute magnetization    =     3.33 Bohr mag/cell

     iteration # 80     ecut=    60.00 Ry     beta= 0.40
     Davidson diagonalization with overlap

---- Real-time Memory Report at c_bands before calling an iterative solver
            80 MiB given to the printing process from OS
            38 MiB allocation reported by mallinfo(arena+hblkhd)
        488590 MiB available memory on the node where the printing process lives
------------------
     ethr =  4.74E-12,  avg # of iterations = 12.0

     total cpu time spent up to now is      141.6 secs

     total energy              =    -183.12909039 Ry
     estimated scf accuracy    <          3.8E-09 Ry

     total magnetization       =     3.31 Bohr mag/cell
     absolute magnetization    =     3.34 Bohr mag/cell

     iteration # 81     ecut=    60.00 Ry     beta= 0.40
     Davidson diagonalization with overlap

---- Real-time Memory Report at c_bands before calling an iterative solver
            80 MiB given to the printing process from OS
            38 MiB allocation reported by mallinfo(arena+hblkhd)
        488589 MiB available memory on the node where the printing process lives
------------------
     ethr =  4.74E-12,  avg # of iterations = 13.0

     total cpu time spent up to now is      144.8 secs

     total energy              =    -183.12909325 Ry
     estimated scf accuracy    <       0.00000001 Ry

     total magnetization       =     3.32 Bohr mag/cell
     absolute magnetization    =     3.36 Bohr mag/cell

     iteration # 82     ecut=    60.00 Ry     beta= 0.40
     Davidson diagonalization with overlap

---- Real-time Memory Report at c_bands before calling an iterative solver
            80 MiB given to the printing process from OS
            38 MiB allocation reported by mallinfo(arena+hblkhd)
        488589 MiB available memory on the node where the printing process lives
------------------
     ethr =  4.74E-12,  avg # of iterations =  8.3

     total cpu time spent up to now is      146.9 secs

     total energy              =    -183.12909343 Ry
     estimated scf accuracy    <       0.00000002 Ry

     total magnetization       =     3.33 Bohr mag/cell
     absolute magnetization    =     3.36 Bohr mag/cell

     iteration # 83     ecut=    60.00 Ry     beta= 0.40
     Davidson diagonalization with overlap

---- Real-time Memory Report at c_bands before calling an iterative solver
            80 MiB given to the printing process from OS
            38 MiB allocation reported by mallinfo(arena+hblkhd)
        488588 MiB available memory on the node where the printing process lives
------------------
     ethr =  4.74E-12,  avg # of iterations =  2.0

     total cpu time spent up to now is      147.9 secs

     total energy              =    -183.12909342 Ry
     estimated scf accuracy    <       0.00000002 Ry

     total magnetization       =     3.33 Bohr mag/cell
     absolute magnetization    =     3.36 Bohr mag/cell

     iteration # 84     ecut=    60.00 Ry     beta= 0.40
     Davidson diagonalization with overlap

---- Real-time Memory Report at c_bands before calling an iterative solver
            80 MiB given to the printing process from OS
            38 MiB allocation reported by mallinfo(arena+hblkhd)
        488588 MiB available memory on the node where the printing process lives
------------------
     ethr =  4.74E-12,  avg # of iterations =  5.4

     total cpu time spent up to now is      149.3 secs

     total energy              =    -183.12909267 Ry
     estimated scf accuracy    <       0.00000002 Ry

     total magnetization       =     3.33 Bohr mag/cell
     absolute magnetization    =     3.36 Bohr mag/cell

     iteration # 85     ecut=    60.00 Ry     beta= 0.40
     Davidson diagonalization with overlap

---- Real-time Memory Report at c_bands before calling an iterative solver
            80 MiB given to the printing process from OS
            38 MiB allocation reported by mallinfo(arena+hblkhd)
        488588 MiB available memory on the node where the printing process lives
------------------
     ethr =  4.74E-12,  avg # of iterations = 10.5

     total cpu time spent up to now is      152.0 secs

     total energy              =    -183.12909257 Ry
     estimated scf accuracy    <       0.00000003 Ry

     total magnetization       =     3.33 Bohr mag/cell
     absolute magnetization    =     3.37 Bohr mag/cell

     iteration # 86     ecut=    60.00 Ry     beta= 0.40
     Davidson diagonalization with overlap

---- Real-time Memory Report at c_bands before calling an iterative solver
            80 MiB given to the printing process from OS
            38 MiB allocation reported by mallinfo(arena+hblkhd)
        488587 MiB available memory on the node where the printing process lives
------------------
     ethr =  4.74E-12,  avg # of iterations = 10.8

     total cpu time spent up to now is      154.7 secs

     total energy              =    -183.12909286 Ry
     estimated scf accuracy    <       0.00000002 Ry

     total magnetization       =     3.33 Bohr mag/cell
     absolute magnetization    =     3.36 Bohr mag/cell

     iteration # 87     ecut=    60.00 Ry     beta= 0.40
     Davidson diagonalization with overlap

---- Real-time Memory Report at c_bands before calling an iterative solver
            80 MiB given to the printing process from OS
            38 MiB allocation reported by mallinfo(arena+hblkhd)
        488586 MiB available memory on the node where the printing process lives
------------------
     ethr =  4.74E-12,  avg # of iterations =  9.9

     total cpu time spent up to now is      157.2 secs

     total energy              =    -183.12906045 Ry
     estimated scf accuracy    <       0.00000003 Ry

     total magnetization       =     3.33 Bohr mag/cell
     absolute magnetization    =     3.37 Bohr mag/cell

     iteration # 88     ecut=    60.00 Ry     beta= 0.40
     Davidson diagonalization with overlap

---- Real-time Memory Report at c_bands before calling an iterative solver
            80 MiB given to the printing process from OS
            38 MiB allocation reported by mallinfo(arena+hblkhd)
        488586 MiB available memory on the node where the printing process lives
------------------
     ethr =  4.74E-12,  avg # of iterations = 17.3

     total cpu time spent up to now is      161.4 secs

     total energy              =    -183.12909190 Ry
     estimated scf accuracy    <          8.6E-09 Ry

     total magnetization       =     3.28 Bohr mag/cell
     absolute magnetization    =     3.32 Bohr mag/cell

     iteration # 89     ecut=    60.00 Ry     beta= 0.40
     Davidson diagonalization with overlap

---- Real-time Memory Report at c_bands before calling an iterative solver
            80 MiB given to the printing process from OS
            38 MiB allocation reported by mallinfo(arena+hblkhd)
        488586 MiB available memory on the node where the printing process lives
------------------
     ethr =  4.74E-12,  avg # of iterations = 11.9

     total cpu time spent up to now is      164.4 secs

     total energy              =    -183.12906791 Ry
     estimated scf accuracy    <          3.3E-09 Ry

     total magnetization       =     3.30 Bohr mag/cell
     absolute magnetization    =     3.33 Bohr mag/cell

     iteration # 90     ecut=    60.00 Ry     beta= 0.40
     Davidson diagonalization with overlap

---- Real-time Memory Report at c_bands before calling an iterative solver
            80 MiB given to the printing process from OS
            38 MiB allocation reported by mallinfo(arena+hblkhd)
        488585 MiB available memory on the node where the printing process lives
------------------
     ethr =  4.74E-12,  avg # of iterations = 16.8

     total cpu time spent up to now is      168.5 secs

     total energy              =    -183.12907968 Ry
     estimated scf accuracy    <       0.00000004 Ry

     total magnetization       =     3.34 Bohr mag/cell
     absolute magnetization    =     3.37 Bohr mag/cell

     iteration # 91     ecut=    60.00 Ry     beta= 0.40
     Davidson diagonalization with overlap

---- Real-time Memory Report at c_bands before calling an iterative solver
            80 MiB given to the printing process from OS
            38 MiB allocation reported by mallinfo(arena+hblkhd)
        488585 MiB available memory on the node where the printing process lives
------------------
     ethr =  4.74E-12,  avg # of iterations = 15.6

     total cpu time spent up to now is      172.4 secs

     total energy              =    -183.12909203 Ry
     estimated scf accuracy    <       0.00000032 Ry

     total magnetization       =     3.36 Bohr mag/cell
     absolute magnetization    =     3.40 Bohr mag/cell

     iteration # 92     ecut=    60.00 Ry     beta= 0.40
     Davidson diagonalization with overlap

---- Real-time Memory Report at c_bands before calling an iterative solver
            80 MiB given to the printing process from OS
            38 MiB allocation reported by mallinfo(arena+hblkhd)
        488583 MiB available memory on the node where the printing process lives
------------------
     ethr =  4.74E-12,  avg # of iterations = 10.3

     total cpu time spent up to now is      174.9 secs

     total energy              =    -183.12908653 Ry
     estimated scf accuracy    <       0.00000022 Ry

     total magnetization       =     3.36 Bohr mag/cell
     absolute magnetization    =     3.39 Bohr mag/cell

     iteration # 93     ecut=    60.00 Ry     beta= 0.40
     Davidson diagonalization with overlap

---- Real-time Memory Report at c_bands before calling an iterative solver
            80 MiB given to the printing process from OS
            38 MiB allocation reported by mallinfo(arena+hblkhd)
        488583 MiB available memory on the node where the printing process lives
------------------
     ethr =  4.74E-12,  avg # of iterations = 14.4

     total cpu time spent up to now is      178.5 secs

     total energy              =    -183.12909246 Ry
     estimated scf accuracy    <       0.00000004 Ry

     total magnetization       =     3.34 Bohr mag/cell
     absolute magnetization    =     3.37 Bohr mag/cell

     iteration # 94     ecut=    60.00 Ry     beta= 0.40
     Davidson diagonalization with overlap

---- Real-time Memory Report at c_bands before calling an iterative solver
            80 MiB given to the printing process from OS
            38 MiB allocation reported by mallinfo(arena+hblkhd)
        488583 MiB available memory on the node where the printing process lives
------------------
     ethr =  4.74E-12,  avg # of iterations = 11.0

     total cpu time spent up to now is      181.2 secs

     total energy              =    -183.12909082 Ry
     estimated scf accuracy    <       0.00000002 Ry

     total magnetization       =     3.33 Bohr mag/cell
     absolute magnetization    =     3.37 Bohr mag/cell

     iteration # 95     ecut=    60.00 Ry     beta= 0.40
     Davidson diagonalization with overlap

---- Real-time Memory Report at c_bands before calling an iterative solver
            80 MiB given to the printing process from OS
            38 MiB allocation reported by mallinfo(arena+hblkhd)
        488582 MiB available memory on the node where the printing process lives
------------------
     ethr =  4.74E-12,  avg # of iterations = 12.5

     total cpu time spent up to now is      184.3 secs

     total energy              =    -183.12908021 Ry
     estimated scf accuracy    <       0.00000006 Ry

     total magnetization       =     3.34 Bohr mag/cell
     absolute magnetization    =     3.38 Bohr mag/cell

     iteration # 96     ecut=    60.00 Ry     beta= 0.40
     Davidson diagonalization with overlap

---- Real-time Memory Report at c_bands before calling an iterative solver
            80 MiB given to the printing process from OS
            38 MiB allocation reported by mallinfo(arena+hblkhd)
        488582 MiB available memory on the node where the printing process lives
------------------
     ethr =  4.74E-12,  avg # of iterations = 15.6

     total cpu time spent up to now is      188.1 secs

     total energy              =    -183.12909300 Ry
     estimated scf accuracy    <          5.0E-09 Ry

     total magnetization       =     3.31 Bohr mag/cell
     absolute magnetization    =     3.35 Bohr mag/cell

     iteration # 97     ecut=    60.00 Ry     beta= 0.40
     Davidson diagonalization with overlap

---- Real-time Memory Report at c_bands before calling an iterative solver
            80 MiB given to the printing process from OS
            38 MiB allocation reported by mallinfo(arena+hblkhd)
        488582 MiB available memory on the node where the printing process lives
------------------
     ethr =  4.74E-12,  avg # of iterations =  9.9

     total cpu time spent up to now is      190.6 secs

     total energy              =    -183.12901622 Ry
     estimated scf accuracy    <          7.8E-09 Ry

     total magnetization       =     3.32 Bohr mag/cell
     absolute magnetization    =     3.35 Bohr mag/cell

     iteration # 98     ecut=    60.00 Ry     beta= 0.40
     Davidson diagonalization with overlap

---- Real-time Memory Report at c_bands before calling an iterative solver
            80 MiB given to the printing process from OS
            38 MiB allocation reported by mallinfo(arena+hblkhd)
        488582 MiB available memory on the node where the printing process lives
------------------
     c_bands:  4 eigenvalues not converged
     c_bands:  3 eigenvalues not converged
     c_bands:  2 eigenvalues not converged
     ethr =  4.74E-12,  avg # of iterations = 18.8

     total cpu time spent up to now is      195.3 secs

     total energy              =    -183.12895215 Ry
     estimated scf accuracy    <       0.00000023 Ry

     total magnetization       =     3.25 Bohr mag/cell
     absolute magnetization    =     3.29 Bohr mag/cell

     iteration # 99     ecut=    60.00 Ry     beta= 0.40
     Davidson diagonalization with overlap

---- Real-time Memory Report at c_bands before calling an iterative solver
            80 MiB given to the printing process from OS
            38 MiB allocation reported by mallinfo(arena+hblkhd)
        488580 MiB available memory on the node where the printing process lives
------------------
     c_bands:  1 eigenvalues not converged
     c_bands:  3 eigenvalues not converged
     c_bands:  1 eigenvalues not converged
     c_bands:  1 eigenvalues not converged
     c_bands:  4 eigenvalues not converged
     c_bands:  4 eigenvalues not converged
     c_bands:  5 eigenvalues not converged
     c_bands:  5 eigenvalues not converged
     c_bands:  5 eigenvalues not converged
     c_bands:  1 eigenvalues not converged
     c_bands:  1 eigenvalues not converged
     c_bands:  3 eigenvalues not converged
     c_bands:  3 eigenvalues not converged
     ethr =  4.74E-12,  avg # of iterations = 19.8

     total cpu time spent up to now is      200.4 secs

     total energy              =    -183.12909138 Ry
     estimated scf accuracy    <       0.00000006 Ry

     total magnetization       =     3.34 Bohr mag/cell
     absolute magnetization    =     3.38 Bohr mag/cell

     iteration #100     ecut=    60.00 Ry     beta= 0.40
     Davidson diagonalization with overlap

---- Real-time Memory Report at c_bands before calling an iterative solver
            80 MiB given to the printing process from OS
            38 MiB allocation reported by mallinfo(arena+hblkhd)
        488579 MiB available memory on the node where the printing process lives
------------------
     ethr =  4.74E-12,  avg # of iterations = 11.9

     total cpu time spent up to now is      203.3 secs

     total energy              =    -183.12908985 Ry
     estimated scf accuracy    <       0.00000013 Ry

     total magnetization       =     3.35 Bohr mag/cell
     absolute magnetization    =     3.39 Bohr mag/cell

     End of self-consistent calculation

     convergence NOT achieved after 100 iterations: stopping

     Writing config to output data dir ./out/aiida.save/ :
     XML data file, charge density

     init_run     :      1.17s CPU      1.21s WALL (       1 calls)
     electrons    :    194.63s CPU    201.82s WALL (       1 calls)

     Called by init_run:
     wfcinit      :      0.29s CPU      0.30s WALL (       1 calls)
     wfcinit:atom :      0.01s CPU      0.01s WALL (      34 calls)
     wfcinit:wfcr :      0.25s CPU      0.26s WALL (      34 calls)
     potinit      :      0.19s CPU      0.20s WALL (       1 calls)
     hinit0       :      0.54s CPU      0.56s WALL (       1 calls)

     Called by electrons:
     c_bands      :    173.79s CPU    180.23s WALL (     100 calls)
     sum_band     :     13.32s CPU     13.79s WALL (     100 calls)
     v_of_rho     :      3.05s CPU      3.14s WALL (     101 calls)
     v_h          :      0.09s CPU      0.09s WALL (     101 calls)
     v_xc         :      2.96s CPU      3.05s WALL (     101 calls)
     newd         :      1.04s CPU      1.05s WALL (     101 calls)
     PAW_pot      :      2.31s CPU      2.31s WALL (     101 calls)
     mix_rho      :      0.48s CPU      0.51s WALL (     100 calls)

     Called by c_bands:
     init_us_2    :      1.46s CPU      1.51s WALL (    6834 calls)
     init_us_2:cp :      1.44s CPU      1.49s WALL (    6834 calls)
     cegterg      :    163.48s CPU    168.32s WALL (    3412 calls)

     Called by sum_band:
     sum_band:wei :      0.16s CPU      0.16s WALL (     100 calls)
     sum_band:loo :     10.80s CPU     11.16s WALL (     100 calls)
     sum_band:buf :      0.12s CPU      0.12s WALL (    3400 calls)
     sum_band:ini :      0.72s CPU      0.74s WALL (    3400 calls)
     sum_band:cal :      0.74s CPU      0.76s WALL (    3400 calls)
     sum_band:bec :      0.03s CPU      0.03s WALL (    3400 calls)
     addusdens    :      1.55s CPU      1.57s WALL (     100 calls)
                                        0.00s GPU  (     100 calls)
     addusd:skk   :      0.01s CPU      0.01s WALL (     300 calls)
                                        0.00s GPU  (     300 calls)

     Called by *egterg:
     cdiaghg      :     13.99s CPU     14.22s WALL (   29057 calls)
     cegterg:over :      6.24s CPU      6.35s WALL (   25645 calls)
     cegterg:upda :      3.22s CPU      3.29s WALL (   25645 calls)
     cegterg:last :      8.42s CPU      8.53s WALL (   21924 calls)
     h_psi        :    123.58s CPU    127.63s WALL (   29091 calls)
     s_psi        :      4.34s CPU      4.44s WALL (   29091 calls)
     g_psi        :      0.60s CPU      0.62s WALL (   25645 calls)

     Called by h_psi:
     h_psi:calbec :      5.30s CPU      5.44s WALL (   29091 calls)
     vloc_psi     :    113.46s CPU    117.18s WALL (   29091 calls)
     add_vuspsi   :      4.35s CPU      4.45s WALL (   29091 calls)

     General routines
     calbec       :      5.97s CPU      6.10s WALL (   32491 calls)
     fft          :      1.54s CPU      1.67s WALL (    2523 calls)
     ffts         :      0.25s CPU      0.27s WALL (     402 calls)
     fftw         :    106.26s CPU    109.46s WALL (  877802 calls)
     interpolate  :      0.29s CPU      0.31s WALL (     202 calls)
     davcio       :      0.00s CPU      0.03s WALL (      52 calls)

     Parallel routines

     PAW routines
     PAW_pot      :      2.31s CPU      2.31s WALL (     101 calls)
     PAW_symme    :      0.02s CPU      0.02s WALL (     201 calls)

     PWSCF        :   3m16.03s CPU   3m23.64s WALL


   This run was terminated on:  22:33:32  19Dec2023            

=------------------------------------------------------------------------------=
   JOB DONE.
=------------------------------------------------------------------------------=
