
     Program PWSCF v.7.2 starts on 23Oct2023 at 20:51:49 

     This program is part of the open-source Quantum ESPRESSO suite
     for quantum simulation of materials; please cite
         "P. Giannozzi et al., J. Phys.:Condens. Matter 21 395502 (2009);
         "P. Giannozzi et al., J. Phys.:Condens. Matter 29 465901 (2017);
         "P. Giannozzi et al., J. Chem. Phys. 152 154105 (2020);
          URL http://www.quantum-espresso.org", 
     in publications or presentations arising from this work. More details at
     http://www.quantum-espresso.org/quote

     Parallel version (MPI & OpenMP), running on      12 processor cores
     Number of MPI processes:                 1
     Threads/MPI process:                    12

     MPI processes distributed on     1 nodes
     36774 MiB available memory on the printing compute node when the environment starts
 
     Reading input from aiida.in

     Current dimensions of program PWSCF are:
     Max number of different atomic species (ntypx) = 10
     Max number of k-points (npk) =  40000
     Max angular momentum in pseudopotentials (lmaxx) =  4
     Message from routine setup:
     using ibrav=0 with symmetry is DISCOURAGED, use correct ibrav instead
 
     Subspace diagonalization in iterative solution of the eigenvalue problem:
     a serial algorithm will be used

 
     G-vector sticks info
     --------------------
     sticks:   dense  smooth     PW     G-vecs:    dense   smooth      PW
     Sum        7399    3679   1027               419185   148309   21331
 
     Using Slab Decomposition
 


     bravais-lattice index     =            0
     lattice parameter (alat)  =      14.9469  a.u.
     unit-cell volume          =    2361.2271 (a.u.)^3
     number of atoms/cell      =            9
     number of atomic types    =            3
     number of electrons       =        54.00
     number of Kohn-Sham states=           32
     kinetic-energy cutoff     =      60.0000  Ry
     charge density cutoff     =     480.0000  Ry
     scf convergence threshold =      1.8E-09
     mixing beta               =       0.2000
     number of iterations used =            8  plain     mixing
     Exchange-correlation= PBESOL
                           (   1   4  10   8   0   0   0)

     GPU acceleration is ACTIVE.


     GPU used by master process:

        Device Number: 0
        Device name: Tesla P100-PCIE-16GB
        Compute capability : 60
        Ratio of single to double precision performance  : 2
        Memory Clock Rate (KHz): 715000
        Memory Bus Width (bits): 4096
        Peak Memory Bandwidth (GB/s): 732.16

     celldm(1)=  14.946893  celldm(2)=   0.000000  celldm(3)=   0.000000
     celldm(4)=   0.000000  celldm(5)=   0.000000  celldm(6)=   0.000000

     crystal axes: (cart. coord. in units of alat)
               a(1) = (   0.000000   0.707107   0.707107 )  
               a(2) = (   0.707107   0.000000   0.707107 )  
               a(3) = (   0.707107   0.707107   0.000000 )  

     reciprocal axes: (cart. coord. in units 2 pi/alat)
               b(1) = ( -0.707107  0.707107  0.707107 )  
               b(2) = (  0.707107 -0.707107  0.707107 )  
               b(3) = (  0.707107  0.707107 -0.707107 )  


     PseudoPot. # 1 for Ca read from file:
     ./pseudo/ca_pbesol_v1.uspp.F.UPF
     MD5 check sum: 0533207b58cddeaa036efa5b63902087
     Pseudo is Ultrasoft + core correction, Zval = 10.0
     Generated by new atomic code, or converted to UPF format
     Using radial grid of  845 points,  6 beta functions with: 
                l(1) =   0
                l(2) =   0
                l(3) =   1
                l(4) =   1
                l(5) =   2
                l(6) =   2
     Q(r) pseudized with  8 coefficients,  rinner =    1.500   1.500   1.500
                                                       1.500   1.500

     PseudoPot. # 2 for I  read from file:
     ./pseudo/I.pbesol-n-kjpaw_psl.0.2.UPF
     MD5 check sum: cecf1a22a184a0b1ae701638a037a48d
     Pseudo is Projector augmented-wave + core cor, Zval =  7.0
     Generated using "atomic" code by A. Dal Corso  v.6.0 svn rev. 13079
     Shape of augmentation charge: PSQ
     Using radial grid of 1247 points,  4 beta functions with: 
                l(1) =   0
                l(2) =   0
                l(3) =   1
                l(4) =   1
     Q(r) pseudized with 0 coefficients 


     PseudoPot. # 3 for N  read from file:
     ./pseudo/N.pbesol-theos.UPF
     MD5 check sum: 1b64827339d390a5a22afef3ff345c9d
     Pseudo is Ultrasoft + core correction, Zval =  5.0
     Generated using "atomic" code by A. Dal Corso  v.5.1
     Using radial grid of 1085 points,  4 beta functions with: 
                l(1) =   0
                l(2) =   0
                l(3) =   1
                l(4) =   1
     Q(r) pseudized with 0 coefficients 


     atomic species   valence    mass     pseudopotential
        Ca            10.00    40.07800     Ca( 1.00)
        I              7.00   126.90447     I ( 1.00)
        N              5.00    14.00670     N ( 1.00)

     Starting magnetic structure 
     atomic species   magnetization
        Ca           0.100
        I            0.100
        N            0.100

     48 Sym. Ops., with inversion, found


                                    s                        frac. trans.

      isym =  1     identity                                     

 cryst.   s( 1) = (     1          0          0      )
                  (     0          1          0      )
                  (     0          0          1      )

 cart.    s( 1) = (  1.0000000 -0.0000000  0.0000000 )
                  ( -0.0000000  1.0000000  0.0000000 )
                  ( -0.0000000  0.0000000  1.0000000 )


      isym =  2     180 deg rotation - cart. axis [0,0,1]        

 cryst.   s( 2) = (     0          1         -1      )
                  (     1          0         -1      )
                  (     0          0         -1      )

 cart.    s( 2) = ( -1.0000000  0.0000000  0.0000000 )
                  (  0.0000000 -1.0000000  0.0000000 )
                  (  0.0000000 -0.0000000  1.0000000 )


      isym =  3     180 deg rotation - cart. axis [0,1,0]        

 cryst.   s( 3) = (     0         -1          1      )
                  (     0         -1          0      )
                  (     1         -1          0      )

 cart.    s( 3) = ( -1.0000000 -0.0000000 -0.0000000 )
                  (  0.0000000  1.0000000 -0.0000000 )
                  (  0.0000000  0.0000000 -1.0000000 )


      isym =  4     180 deg rotation - cart. axis [1,0,0]        

 cryst.   s( 4) = (    -1          0          0      )
                  (    -1          0          1      )
                  (    -1          1          0      )

 cart.    s( 4) = (  1.0000000  0.0000000 -0.0000000 )
                  ( -0.0000000 -1.0000000 -0.0000000 )
                  ( -0.0000000 -0.0000000 -1.0000000 )


      isym =  5     180 deg rotation - cart. axis [1,1,0]        

 cryst.   s( 5) = (    -1          0          1      )
                  (     0         -1          1      )
                  (     0          0          1      )

 cart.    s( 5) = ( -0.0000000  1.0000000 -0.0000000 )
                  (  1.0000000 -0.0000000 -0.0000000 )
                  (  0.0000000 -0.0000000 -1.0000000 )


      isym =  6     180 deg rotation - cart. axis [1,-1,0]       

 cryst.   s( 6) = (     0         -1          0      )
                  (    -1          0          0      )
                  (     0          0         -1      )

 cart.    s( 6) = (  0.0000000 -1.0000000 -0.0000000 )
                  ( -1.0000000  0.0000000 -0.0000000 )
                  ( -0.0000000  0.0000000 -1.0000000 )


      isym =  7      90 deg rotation - cart. axis [0,0,-1]       

 cryst.   s( 7) = (     0          1          0      )
                  (     0          1         -1      )
                  (    -1          1          0      )

 cart.    s( 7) = (  0.0000000  1.0000000  0.0000000 )
                  ( -1.0000000 -0.0000000  0.0000000 )
                  ( -0.0000000 -0.0000000  1.0000000 )


      isym =  8      90 deg rotation - cart. axis [0,0,1]        

 cryst.   s( 8) = (     1          0         -1      )
                  (     1          0          0      )
                  (     1         -1          0      )

 cart.    s( 8) = ( -0.0000000 -1.0000000  0.0000000 )
                  (  1.0000000  0.0000000  0.0000000 )
                  (  0.0000000  0.0000000  1.0000000 )


      isym =  9     180 deg rotation - cart. axis [1,0,1]        

 cryst.   s( 9) = (    -1          1          0      )
                  (     0          1          0      )
                  (     0          1         -1      )

 cart.    s( 9) = (  0.0000000  0.0000000  1.0000000 )
                  (  0.0000000 -1.0000000 -0.0000000 )
                  (  1.0000000 -0.0000000 -0.0000000 )


      isym = 10     180 deg rotation - cart. axis [-1,0,1]       

 cryst.   s(10) = (     0          0         -1      )
                  (     0         -1          0      )
                  (    -1          0          0      )

 cart.    s(10) = ( -0.0000000  0.0000000 -1.0000000 )
                  ( -0.0000000 -1.0000000  0.0000000 )
                  ( -1.0000000 -0.0000000  0.0000000 )


      isym = 11      90 deg rotation - cart. axis [0,1,0]        

 cryst.   s(11) = (     0          0          1      )
                  (    -1          0          1      )
                  (     0         -1          1      )

 cart.    s(11) = ( -0.0000000 -0.0000000  1.0000000 )
                  ( -0.0000000  1.0000000 -0.0000000 )
                  ( -1.0000000  0.0000000 -0.0000000 )


      isym = 12      90 deg rotation - cart. axis [0,-1,0]       

 cryst.   s(12) = (     1         -1          0      )
                  (     1          0         -1      )
                  (     1          0          0      )

 cart.    s(12) = (  0.0000000 -0.0000000 -1.0000000 )
                  (  0.0000000  1.0000000  0.0000000 )
                  (  1.0000000  0.0000000  0.0000000 )


      isym = 13     180 deg rotation - cart. axis [0,1,1]        

 cryst.   s(13) = (     1          0          0      )
                  (     1         -1          0      )
                  (     1          0         -1      )

 cart.    s(13) = ( -1.0000000  0.0000000 -0.0000000 )
                  (  0.0000000  0.0000000  1.0000000 )
                  (  0.0000000  1.0000000  0.0000000 )


      isym = 14     180 deg rotation - cart. axis [0,1,-1]       

 cryst.   s(14) = (    -1          0          0      )
                  (     0          0         -1      )
                  (     0         -1          0      )

 cart.    s(14) = ( -1.0000000 -0.0000000  0.0000000 )
                  (  0.0000000 -0.0000000 -1.0000000 )
                  (  0.0000000 -1.0000000 -0.0000000 )


      isym = 15      90 deg rotation - cart. axis [-1,0,0]       

 cryst.   s(15) = (     0         -1          1      )
                  (     0          0          1      )
                  (    -1          0          1      )

 cart.    s(15) = (  1.0000000 -0.0000000 -0.0000000 )
                  ( -0.0000000 -0.0000000  1.0000000 )
                  ( -0.0000000 -1.0000000  0.0000000 )


      isym = 16      90 deg rotation - cart. axis [1,0,0]        

 cryst.   s(16) = (     0          1         -1      )
                  (    -1          1          0      )
                  (     0          1          0      )

 cart.    s(16) = (  1.0000000  0.0000000  0.0000000 )
                  ( -0.0000000  0.0000000 -1.0000000 )
                  ( -0.0000000  1.0000000 -0.0000000 )


      isym = 17     120 deg rotation - cart. axis [-1,-1,-1]     

 cryst.   s(17) = (     0          0          1      )
                  (     1          0          0      )
                  (     0          1          0      )

 cart.    s(17) = (  0.0000000  1.0000000 -0.0000000 )
                  (  0.0000000 -0.0000000  1.0000000 )
                  (  1.0000000 -0.0000000  0.0000000 )


      isym = 18     120 deg rotation - cart. axis [-1,1,1]       

 cryst.   s(18) = (     1         -1          0      )
                  (     0         -1          1      )
                  (     0         -1          0      )

 cart.    s(18) = ( -0.0000000 -1.0000000 -0.0000000 )
                  ( -0.0000000  0.0000000  1.0000000 )
                  ( -1.0000000  0.0000000  0.0000000 )


      isym = 19     120 deg rotation - cart. axis [1,1,-1]       

 cryst.   s(19) = (    -1          1          0      )
                  (    -1          0          0      )
                  (    -1          0          1      )

 cart.    s(19) = ( -0.0000000  1.0000000  0.0000000 )
                  ( -0.0000000 -0.0000000 -1.0000000 )
                  ( -1.0000000 -0.0000000 -0.0000000 )


      isym = 20     120 deg rotation - cart. axis [1,-1,1]       

 cryst.   s(20) = (     0          0         -1      )
                  (     0          1         -1      )
                  (     1          0         -1      )

 cart.    s(20) = (  0.0000000 -1.0000000  0.0000000 )
                  (  0.0000000  0.0000000 -1.0000000 )
                  (  1.0000000  0.0000000 -0.0000000 )


      isym = 21     120 deg rotation - cart. axis [1,1,1]        

 cryst.   s(21) = (     0          1          0      )
                  (     0          0          1      )
                  (     1          0          0      )

 cart.    s(21) = ( -0.0000000  0.0000000  1.0000000 )
                  (  1.0000000  0.0000000 -0.0000000 )
                  (  0.0000000  1.0000000 -0.0000000 )


      isym = 22     120 deg rotation - cart. axis [-1,1,-1]      

 cryst.   s(22) = (    -1          0          1      )
                  (    -1          1          0      )
                  (    -1          0          0      )

 cart.    s(22) = (  0.0000000 -0.0000000  1.0000000 )
                  ( -1.0000000 -0.0000000 -0.0000000 )
                  ( -0.0000000 -1.0000000 -0.0000000 )


      isym = 23     120 deg rotation - cart. axis [1,-1,-1]      

 cryst.   s(23) = (     1          0         -1      )
                  (     0          0         -1      )
                  (     0          1         -1      )

 cart.    s(23) = (  0.0000000  0.0000000 -1.0000000 )
                  ( -1.0000000  0.0000000  0.0000000 )
                  ( -0.0000000  1.0000000  0.0000000 )


      isym = 24     120 deg rotation - cart. axis [-1,-1,1]      

 cryst.   s(24) = (     0         -1          0      )
                  (     1         -1          0      )
                  (     0         -1          1      )

 cart.    s(24) = ( -0.0000000 -0.0000000 -1.0000000 )
                  (  1.0000000 -0.0000000  0.0000000 )
                  (  0.0000000 -1.0000000  0.0000000 )


      isym = 25     inversion                                    

 cryst.   s(25) = (    -1          0          0      )
                  (     0         -1          0      )
                  (     0          0         -1      )

 cart.    s(25) = ( -1.0000000  0.0000000 -0.0000000 )
                  (  0.0000000 -1.0000000 -0.0000000 )
                  (  0.0000000 -0.0000000 -1.0000000 )


      isym = 26     inv. 180 deg rotation - cart. axis [0,0,1]   

 cryst.   s(26) = (     0         -1          1      )
                  (    -1          0          1      )
                  (     0          0          1      )

 cart.    s(26) = (  1.0000000 -0.0000000 -0.0000000 )
                  ( -0.0000000  1.0000000 -0.0000000 )
                  ( -0.0000000  0.0000000 -1.0000000 )


      isym = 27     inv. 180 deg rotation - cart. axis [0,1,0]   

 cryst.   s(27) = (     0          1         -1      )
                  (     0          1          0      )
                  (    -1          1          0      )

 cart.    s(27) = (  1.0000000  0.0000000  0.0000000 )
                  ( -0.0000000 -1.0000000  0.0000000 )
                  ( -0.0000000 -0.0000000  1.0000000 )


      isym = 28     inv. 180 deg rotation - cart. axis [1,0,0]   

 cryst.   s(28) = (     1          0          0      )
                  (     1          0         -1      )
                  (     1         -1          0      )

 cart.    s(28) = ( -1.0000000 -0.0000000  0.0000000 )
                  (  0.0000000  1.0000000  0.0000000 )
                  (  0.0000000  0.0000000  1.0000000 )


      isym = 29     inv. 180 deg rotation - cart. axis [1,1,0]   

 cryst.   s(29) = (     1          0         -1      )
                  (     0          1         -1      )
                  (     0          0         -1      )

 cart.    s(29) = (  0.0000000 -1.0000000  0.0000000 )
                  ( -1.0000000  0.0000000  0.0000000 )
                  ( -0.0000000  0.0000000  1.0000000 )


      isym = 30     inv. 180 deg rotation - cart. axis [1,-1,0]  

 cryst.   s(30) = (     0          1          0      )
                  (     1          0          0      )
                  (     0          0          1      )

 cart.    s(30) = ( -0.0000000  1.0000000  0.0000000 )
                  (  1.0000000 -0.0000000  0.0000000 )
                  (  0.0000000 -0.0000000  1.0000000 )


      isym = 31     inv.  90 deg rotation - cart. axis [0,0,-1]  

 cryst.   s(31) = (     0         -1          0      )
                  (     0         -1          1      )
                  (     1         -1          0      )

 cart.    s(31) = ( -0.0000000 -1.0000000 -0.0000000 )
                  (  1.0000000  0.0000000 -0.0000000 )
                  (  0.0000000  0.0000000 -1.0000000 )


      isym = 32     inv.  90 deg rotation - cart. axis [0,0,1]   

 cryst.   s(32) = (    -1          0          1      )
                  (    -1          0          0      )
                  (    -1          1          0      )

 cart.    s(32) = (  0.0000000  1.0000000 -0.0000000 )
                  ( -1.0000000 -0.0000000 -0.0000000 )
                  ( -0.0000000 -0.0000000 -1.0000000 )


      isym = 33     inv. 180 deg rotation - cart. axis [1,0,1]   

 cryst.   s(33) = (     1         -1          0      )
                  (     0         -1          0      )
                  (     0         -1          1      )

 cart.    s(33) = ( -0.0000000 -0.0000000 -1.0000000 )
                  ( -0.0000000  1.0000000  0.0000000 )
                  ( -1.0000000  0.0000000  0.0000000 )


      isym = 34     inv. 180 deg rotation - cart. axis [-1,0,1]  

 cryst.   s(34) = (     0          0          1      )
                  (     0          1          0      )
                  (     1          0          0      )

 cart.    s(34) = (  0.0000000 -0.0000000  1.0000000 )
                  (  0.0000000  1.0000000 -0.0000000 )
                  (  1.0000000  0.0000000 -0.0000000 )


      isym = 35     inv.  90 deg rotation - cart. axis [0,1,0]   

 cryst.   s(35) = (     0          0         -1      )
                  (     1          0         -1      )
                  (     0          1         -1      )

 cart.    s(35) = (  0.0000000  0.0000000 -1.0000000 )
                  (  0.0000000 -1.0000000  0.0000000 )
                  (  1.0000000 -0.0000000  0.0000000 )


      isym = 36     inv.  90 deg rotation - cart. axis [0,-1,0]  

 cryst.   s(36) = (    -1          1          0      )
                  (    -1          0          1      )
                  (    -1          0          0      )

 cart.    s(36) = ( -0.0000000  0.0000000  1.0000000 )
                  ( -0.0000000 -1.0000000 -0.0000000 )
                  ( -1.0000000 -0.0000000 -0.0000000 )


      isym = 37     inv. 180 deg rotation - cart. axis [0,1,1]   

 cryst.   s(37) = (    -1          0          0      )
                  (    -1          1          0      )
                  (    -1          0          1      )

 cart.    s(37) = (  1.0000000 -0.0000000  0.0000000 )
                  ( -0.0000000 -0.0000000 -1.0000000 )
                  ( -0.0000000 -1.0000000 -0.0000000 )


      isym = 38     inv. 180 deg rotation - cart. axis [0,1,-1]  

 cryst.   s(38) = (     1          0          0      )
                  (     0          0          1      )
                  (     0          1          0      )

 cart.    s(38) = (  1.0000000  0.0000000 -0.0000000 )
                  ( -0.0000000  0.0000000  1.0000000 )
                  ( -0.0000000  1.0000000  0.0000000 )


      isym = 39     inv.  90 deg rotation - cart. axis [-1,0,0]  

 cryst.   s(39) = (     0          1         -1      )
                  (     0          0         -1      )
                  (     1          0         -1      )

 cart.    s(39) = ( -1.0000000  0.0000000  0.0000000 )
                  (  0.0000000  0.0000000 -1.0000000 )
                  (  0.0000000  1.0000000 -0.0000000 )


      isym = 40     inv.  90 deg rotation - cart. axis [1,0,0]   

 cryst.   s(40) = (     0         -1          1      )
                  (     1         -1          0      )
                  (     0         -1          0      )

 cart.    s(40) = ( -1.0000000 -0.0000000 -0.0000000 )
                  (  0.0000000 -0.0000000  1.0000000 )
                  (  0.0000000 -1.0000000  0.0000000 )


      isym = 41     inv. 120 deg rotation - cart. axis [-1,-1,-1]

 cryst.   s(41) = (     0          0         -1      )
                  (    -1          0          0      )
                  (     0         -1          0      )

 cart.    s(41) = ( -0.0000000 -1.0000000  0.0000000 )
                  ( -0.0000000  0.0000000 -1.0000000 )
                  ( -1.0000000  0.0000000 -0.0000000 )


      isym = 42     inv. 120 deg rotation - cart. axis [-1,1,1]  

 cryst.   s(42) = (    -1          1          0      )
                  (     0          1         -1      )
                  (     0          1          0      )

 cart.    s(42) = (  0.0000000  1.0000000  0.0000000 )
                  (  0.0000000 -0.0000000 -1.0000000 )
                  (  1.0000000 -0.0000000 -0.0000000 )


      isym = 43     inv. 120 deg rotation - cart. axis [1,1,-1]  

 cryst.   s(43) = (     1         -1          0      )
                  (     1          0          0      )
                  (     1          0         -1      )

 cart.    s(43) = (  0.0000000 -1.0000000 -0.0000000 )
                  (  0.0000000  0.0000000  1.0000000 )
                  (  1.0000000  0.0000000  0.0000000 )


      isym = 44     inv. 120 deg rotation - cart. axis [1,-1,1]  

 cryst.   s(44) = (     0          0          1      )
                  (     0         -1          1      )
                  (    -1          0          1      )

 cart.    s(44) = ( -0.0000000  1.0000000 -0.0000000 )
                  ( -0.0000000 -0.0000000  1.0000000 )
                  ( -1.0000000 -0.0000000  0.0000000 )


      isym = 45     inv. 120 deg rotation - cart. axis [1,1,1]   

 cryst.   s(45) = (     0         -1          0      )
                  (     0          0         -1      )
                  (    -1          0          0      )

 cart.    s(45) = (  0.0000000 -0.0000000 -1.0000000 )
                  ( -1.0000000 -0.0000000  0.0000000 )
                  ( -0.0000000 -1.0000000  0.0000000 )


      isym = 46     inv. 120 deg rotation - cart. axis [-1,1,-1] 

 cryst.   s(46) = (     1          0         -1      )
                  (     1         -1          0      )
                  (     1          0          0      )

 cart.    s(46) = ( -0.0000000  0.0000000 -1.0000000 )
                  (  1.0000000  0.0000000  0.0000000 )
                  (  0.0000000  1.0000000  0.0000000 )


      isym = 47     inv. 120 deg rotation - cart. axis [1,-1,-1] 

 cryst.   s(47) = (    -1          0          1      )
                  (     0          0          1      )
                  (     0         -1          1      )

 cart.    s(47) = ( -0.0000000 -0.0000000  1.0000000 )
                  (  1.0000000 -0.0000000 -0.0000000 )
                  (  0.0000000 -1.0000000 -0.0000000 )


      isym = 48     inv. 120 deg rotation - cart. axis [-1,-1,1] 

 cryst.   s(48) = (     0          1          0      )
                  (    -1          1          0      )
                  (     0          1         -1      )

 cart.    s(48) = (  0.0000000  0.0000000  1.0000000 )
                  ( -1.0000000  0.0000000 -0.0000000 )
                  ( -0.0000000  1.0000000 -0.0000000 )


   Cartesian axes

     site n.     atom                  positions (alat units)
         1           Ca  tau(   1) = (   0.0000000   0.0000000   0.0000000  )
         2           I   tau(   2) = (   0.3535534   0.3535534   1.0606602  )
         3           I   tau(   3) = (   0.3535534   1.0606602   1.0606602  )
         4           N   tau(   4) = (   1.0979954   0.0000000   0.0000000  )
         5           N   tau(   5) = (   0.7071068   0.3908886   0.0000000  )
         6           N   tau(   6) = (  -0.0000000  -0.0000000   1.0979954  )
         7           N   tau(   7) = (   0.7071068  -0.0000000   1.0233249  )
         8           N   tau(   8) = (   0.7071068   1.0233249  -0.0000000  )
         9           N   tau(   9) = (   0.3162182   0.0000000   0.0000000  )

   Crystallographic axes

     site n.     atom                  positions (cryst. coord.)
         1           Ca  tau(   1) = (  0.0000000  0.0000000  0.0000000  )
         2           I   tau(   2) = (  0.7500000  0.7500000 -0.2500000  )
         3           I   tau(   3) = (  1.2500000  0.2500000  0.2500000  )
         4           N   tau(   4) = ( -0.7764000  0.7764000  0.7764000  )
         5           N   tau(   5) = ( -0.2236000  0.2236000  0.7764000  )
         6           N   tau(   6) = (  0.7764000  0.7764000 -0.7764000  )
         7           N   tau(   7) = (  0.2236000  1.2236000 -0.2236000  )
         8           N   tau(   8) = (  0.2236000 -0.2236000  1.2236000  )
         9           N   tau(   9) = ( -0.2236000  0.2236000  0.2236000  )

     number of k points=    20  Marzari-Vanderbilt smearing, width (Ry)=  0.0100
                       cart. coord. in units 2pi/alat
        k(    1) = (   0.0000000   0.0000000   0.0000000), wk =   0.0029155
        k(    2) = (   0.1010153   0.1010153  -0.1010153), wk =   0.0233236
        k(    3) = (   0.2020305   0.2020305  -0.2020305), wk =   0.0233236
        k(    4) = (   0.3030458   0.3030458  -0.3030458), wk =   0.0233236
        k(    5) = (   0.2020305  -0.0000000   0.0000000), wk =   0.0174927
        k(    6) = (   0.3030458   0.1010153  -0.1010153), wk =   0.0699708
        k(    7) = (   0.4040610   0.2020305  -0.2020305), wk =   0.0699708
        k(    8) = (  -0.2020305  -0.4040610   0.4040610), wk =   0.0699708
        k(    9) = (  -0.1010153  -0.3030458   0.3030458), wk =   0.0699708
        k(   10) = (  -0.0000000  -0.2020305   0.2020305), wk =   0.0349854
        k(   11) = (   0.4040610  -0.0000000   0.0000000), wk =   0.0174927
        k(   12) = (   0.5050763   0.1010153  -0.1010153), wk =   0.0699708
        k(   13) = (  -0.1010153  -0.5050763   0.5050763), wk =   0.0699708
        k(   14) = (   0.0000000  -0.4040610   0.4040610), wk =   0.0349854
        k(   15) = (   0.6060915  -0.0000000   0.0000000), wk =   0.0174927
        k(   16) = (  -0.0000000  -0.6060915   0.6060915), wk =   0.0349854
        k(   17) = (   0.4040610   0.2020305   0.0000000), wk =   0.0699708
        k(   18) = (  -0.2020305  -0.4040610   0.6060915), wk =   0.1399417
        k(   19) = (  -0.1010153  -0.5050763   0.7071068), wk =   0.0699708
        k(   20) = (  -0.0000000  -0.4040610   0.6060915), wk =   0.0699708

                       cryst. coord.
        k(    1) = (   0.0000000   0.0000000   0.0000000), wk =   0.0029155
        k(    2) = (  -0.0000000  -0.0000000   0.1428571), wk =   0.0233236
        k(    3) = (  -0.0000000  -0.0000000   0.2857143), wk =   0.0233236
        k(    4) = (  -0.0000000  -0.0000000   0.4285714), wk =   0.0233236
        k(    5) = (   0.0000000   0.1428571   0.1428571), wk =   0.0174927
        k(    6) = (  -0.0000000   0.1428571   0.2857143), wk =   0.0699708
        k(    7) = (  -0.0000000   0.1428571   0.4285714), wk =   0.0699708
        k(    8) = (   0.0000000   0.1428571  -0.4285714), wk =   0.0699708
        k(    9) = (   0.0000000   0.1428571  -0.2857143), wk =   0.0699708
        k(   10) = (  -0.0000000   0.1428571  -0.1428571), wk =   0.0349854
        k(   11) = (   0.0000000   0.2857143   0.2857143), wk =   0.0174927
        k(   12) = (  -0.0000000   0.2857143   0.4285714), wk =   0.0699708
        k(   13) = (  -0.0000000   0.2857143  -0.4285714), wk =   0.0699708
        k(   14) = (   0.0000000   0.2857143  -0.2857143), wk =   0.0349854
        k(   15) = (   0.0000000   0.4285714   0.4285714), wk =   0.0174927
        k(   16) = (   0.0000000   0.4285714  -0.4285714), wk =   0.0349854
        k(   17) = (   0.1428571   0.2857143   0.4285714), wk =   0.0699708
        k(   18) = (   0.1428571   0.2857143  -0.4285714), wk =   0.1399417
        k(   19) = (   0.1428571   0.4285714  -0.4285714), wk =   0.0699708
        k(   20) = (   0.1428571   0.4285714  -0.2857143), wk =   0.0699708

     Dense  grid:   419185 G-vectors     FFT dimensions: ( 108, 108, 108)

     Smooth grid:   148309 G-vectors     FFT dimensions: (  75,  75,  75)

     Dynamical RAM for                 wfc:       9.05 MB

     Dynamical RAM for     wfc (w. buffer):     371.00 MB

     Dynamical RAM for           str. fact:      19.19 MB

     Dynamical RAM for           local pot:       0.00 MB

     Dynamical RAM for          nlocal pot:      23.19 MB

     Dynamical RAM for                qrad:       5.27 MB

     Dynamical RAM for          rho,v,vnew:      96.04 MB

     Dynamical RAM for               rhoin:      32.01 MB

     Dynamical RAM for            rho*nmix:     204.68 MB

     Dynamical RAM for           G-vectors:      25.12 MB

     Dynamical RAM for          h,s,v(r/c):       0.19 MB

     Dynamical RAM for          <psi|beta>:       0.04 MB

     Dynamical RAM for                 psi:      18.10 MB

     Dynamical RAM for                hpsi:      18.10 MB

     Dynamical RAM for                spsi:      18.10 MB

     Dynamical RAM for      wfcinit/wfcrot:      18.12 MB

     Dynamical RAM for           addusdens:    1234.48 MB

     Dynamical RAM for          addusforce:    1298.49 MB

     Dynamical RAM for         addusstress:    1295.24 MB

     Estimated static dynamical RAM per process >     655.08 MB

     Estimated max dynamical RAM per process >       2.11 GB

     Atomic positions and unit cell read from directory:
     ./out/aiida.save/
 
     Generating pointlists ...
     new r_m :   0.1304 (alat units)  1.9497 (a.u.) for type    1
     new r_m :   0.2068 (alat units)  3.0914 (a.u.) for type    2
     new r_m :   0.1304 (alat units)  1.9497 (a.u.) for type    3

     The initial density is read from file :
     ./out/aiida.save/charge-density


     negative rho (up, down):  0.000E+00 6.869E-06
     Starting wfcs from file
     Checking if some PAW data can be deallocated... 

     total cpu time spent up to now is        4.1 secs

     per-process dynamical memory:   660.3 Mb

     Self-consistent Calculation
[tb_dev] Currently allocated     6.87E-05 Mbytes, locked:    0 /   2
[tb_pin] Currently allocated     0.00E+00 Mbytes, locked:    0 /   0

     iteration #  1     ecut=    60.00 Ry     beta= 0.20
     Davidson diagonalization with overlap

---- Real-time Memory Report at c_bands before calling an iterative solver
           840 MiB given to the printing process from OS
           674 MiB allocation reported by mallinfo(arena+hblkhd)
         35109 MiB available memory on the node where the printing process lives
     GPU memory used/free/total (MiB): 1074 / 15206 / 16280
------------------
     ethr =  1.00E-05,  avg # of iterations =  1.4

     negative rho (up, down):  0.000E+00 6.882E-06

     total cpu time spent up to now is        8.2 secs

     total energy              =    -939.06242381 Ry
     estimated scf accuracy    <       0.01988506 Ry

     total magnetization       =    10.00 Bohr mag/cell
     absolute magnetization    =    13.07 Bohr mag/cell
[tb_dev] Currently allocated     1.54E+01 Mbytes, locked:    0 /  11
[tb_pin] Currently allocated     0.00E+00 Mbytes, locked:    0 /   0

     iteration #  2     ecut=    60.00 Ry     beta= 0.20
     Davidson diagonalization with overlap

---- Real-time Memory Report at c_bands before calling an iterative solver
          1689 MiB given to the printing process from OS
          1409 MiB allocation reported by mallinfo(arena+hblkhd)
         33549 MiB available memory on the node where the printing process lives
     GPU memory used/free/total (MiB): 2984 / 13296 / 16280
------------------
     ethr =  3.68E-05,  avg # of iterations =  5.2

     negative rho (up, down):  0.000E+00 6.513E-06

     total cpu time spent up to now is       12.2 secs

     total energy              =    -939.06524021 Ry
     estimated scf accuracy    <       0.15281538 Ry

     total magnetization       =    10.00 Bohr mag/cell
     absolute magnetization    =    15.16 Bohr mag/cell
[tb_dev] Currently allocated     1.54E+01 Mbytes, locked:    0 /  11
[tb_pin] Currently allocated     0.00E+00 Mbytes, locked:    0 /   0

     iteration #  3     ecut=    60.00 Ry     beta= 0.20
     Davidson diagonalization with overlap

---- Real-time Memory Report at c_bands before calling an iterative solver
          1753 MiB given to the printing process from OS
          1421 MiB allocation reported by mallinfo(arena+hblkhd)
         33537 MiB available memory on the node where the printing process lives
     GPU memory used/free/total (MiB): 3354 / 12926 / 16280
------------------
     ethr =  3.68E-05,  avg # of iterations =  2.3

     negative rho (up, down):  0.000E+00 6.089E-06

     total cpu time spent up to now is       15.3 secs

     total energy              =    -939.07182868 Ry
     estimated scf accuracy    <       0.09977249 Ry

     total magnetization       =    10.00 Bohr mag/cell
     absolute magnetization    =    15.04 Bohr mag/cell
[tb_dev] Currently allocated     1.54E+01 Mbytes, locked:    0 /  11
[tb_pin] Currently allocated     0.00E+00 Mbytes, locked:    0 /   0

     iteration #  4     ecut=    60.00 Ry     beta= 0.20
     Davidson diagonalization with overlap

---- Real-time Memory Report at c_bands before calling an iterative solver
          1817 MiB given to the printing process from OS
          1434 MiB allocation reported by mallinfo(arena+hblkhd)
         33524 MiB available memory on the node where the printing process lives
     GPU memory used/free/total (MiB): 3354 / 12926 / 16280
------------------
     ethr =  3.68E-05,  avg # of iterations =  1.0

     negative rho (up, down):  0.000E+00 1.943E-05

     total cpu time spent up to now is       18.2 secs

     total energy              =    -939.04551141 Ry
     estimated scf accuracy    <       0.11249612 Ry

     total magnetization       =    10.00 Bohr mag/cell
     absolute magnetization    =    15.01 Bohr mag/cell
[tb_dev] Currently allocated     1.54E+01 Mbytes, locked:    0 /  11
[tb_pin] Currently allocated     0.00E+00 Mbytes, locked:    0 /   0

     iteration #  5     ecut=    60.00 Ry     beta= 0.20
     Davidson diagonalization with overlap

---- Real-time Memory Report at c_bands before calling an iterative solver
          1879 MiB given to the printing process from OS
          1447 MiB allocation reported by mallinfo(arena+hblkhd)
         33514 MiB available memory on the node where the printing process lives
     GPU memory used/free/total (MiB): 3354 / 12926 / 16280
------------------
     c_bands:  3 eigenvalues not converged
     c_bands:  3 eigenvalues not converged
     c_bands:  2 eigenvalues not converged
     c_bands:  1 eigenvalues not converged
     c_bands:  4 eigenvalues not converged
     c_bands:  2 eigenvalues not converged
     ethr =  3.68E-05,  avg # of iterations =  9.3

     negative rho (up, down):  0.000E+00 1.645E-05

     total cpu time spent up to now is       23.4 secs

     total energy              =    -939.07648349 Ry
     estimated scf accuracy    <       0.26258324 Ry

     total magnetization       =    10.00 Bohr mag/cell
     absolute magnetization    =    11.88 Bohr mag/cell
[tb_dev] Currently allocated     1.54E+01 Mbytes, locked:    0 /  11
[tb_pin] Currently allocated     0.00E+00 Mbytes, locked:    0 /   0

     iteration #  6     ecut=    60.00 Ry     beta= 0.20
     Davidson diagonalization with overlap

---- Real-time Memory Report at c_bands before calling an iterative solver
          1946 MiB given to the printing process from OS
          1465 MiB allocation reported by mallinfo(arena+hblkhd)
         33496 MiB available memory on the node where the printing process lives
     GPU memory used/free/total (MiB): 3706 / 12574 / 16280
------------------
     ethr =  3.68E-05,  avg # of iterations =  1.2

     negative rho (up, down):  0.000E+00 1.265E-05

     total cpu time spent up to now is       26.4 secs

     total energy              =    -939.07082231 Ry
     estimated scf accuracy    <       0.23324402 Ry

     total magnetization       =    10.00 Bohr mag/cell
     absolute magnetization    =    11.87 Bohr mag/cell
[tb_dev] Currently allocated     1.54E+01 Mbytes, locked:    0 /  11
[tb_pin] Currently allocated     0.00E+00 Mbytes, locked:    0 /   0

     iteration #  7     ecut=    60.00 Ry     beta= 0.20
     Davidson diagonalization with overlap

---- Real-time Memory Report at c_bands before calling an iterative solver
          2014 MiB given to the printing process from OS
          1482 MiB allocation reported by mallinfo(arena+hblkhd)
         33480 MiB available memory on the node where the printing process lives
     GPU memory used/free/total (MiB): 3706 / 12574 / 16280
------------------
     ethr =  3.68E-05,  avg # of iterations =  1.0

     negative rho (up, down):  0.000E+00 1.268E-05

     total cpu time spent up to now is       29.3 secs

     total energy              =    -939.07101557 Ry
     estimated scf accuracy    <       0.21526632 Ry

     total magnetization       =    10.00 Bohr mag/cell
     absolute magnetization    =    11.87 Bohr mag/cell
[tb_dev] Currently allocated     1.54E+01 Mbytes, locked:    0 /  11
[tb_pin] Currently allocated     0.00E+00 Mbytes, locked:    0 /   0

     iteration #  8     ecut=    60.00 Ry     beta= 0.20
     Davidson diagonalization with overlap

---- Real-time Memory Report at c_bands before calling an iterative solver
          2079 MiB given to the printing process from OS
          1495 MiB allocation reported by mallinfo(arena+hblkhd)
         33465 MiB available memory on the node where the printing process lives
     GPU memory used/free/total (MiB): 3706 / 12574 / 16280
------------------
     ethr =  3.68E-05,  avg # of iterations =  1.0

     negative rho (up, down):  0.000E+00 1.375E-05

     total cpu time spent up to now is       32.2 secs

     total energy              =    -939.07149991 Ry
     estimated scf accuracy    <       0.21311969 Ry

     total magnetization       =    10.00 Bohr mag/cell
     absolute magnetization    =    11.88 Bohr mag/cell
[tb_dev] Currently allocated     1.54E+01 Mbytes, locked:    0 /  11
[tb_pin] Currently allocated     0.00E+00 Mbytes, locked:    0 /   0

     iteration #  9     ecut=    60.00 Ry     beta= 0.20
     Davidson diagonalization with overlap

---- Real-time Memory Report at c_bands before calling an iterative solver
          2140 MiB given to the printing process from OS
          1508 MiB allocation reported by mallinfo(arena+hblkhd)
         33452 MiB available memory on the node where the printing process lives
     GPU memory used/free/total (MiB): 3706 / 12574 / 16280
------------------
     ethr =  3.68E-05,  avg # of iterations =  1.0

     negative rho (up, down):  0.000E+00 1.166E-05

     total cpu time spent up to now is       35.1 secs

     total energy              =    -939.06792366 Ry
     estimated scf accuracy    <       0.21234212 Ry

     total magnetization       =    10.00 Bohr mag/cell
     absolute magnetization    =    11.89 Bohr mag/cell
[tb_dev] Currently allocated     1.54E+01 Mbytes, locked:    0 /  11
[tb_pin] Currently allocated     0.00E+00 Mbytes, locked:    0 /   0

     iteration # 10     ecut=    60.00 Ry     beta= 0.20
     Davidson diagonalization with overlap

---- Real-time Memory Report at c_bands before calling an iterative solver
          2197 MiB given to the printing process from OS
          1521 MiB allocation reported by mallinfo(arena+hblkhd)
         33440 MiB available memory on the node where the printing process lives
     GPU memory used/free/total (MiB): 3706 / 12574 / 16280
------------------
     ethr =  3.68E-05,  avg # of iterations =  1.0

     negative rho (up, down):  0.000E+00 1.129E-05

     total cpu time spent up to now is       38.0 secs

     total energy              =    -939.06982179 Ry
     estimated scf accuracy    <       0.19983543 Ry

     total magnetization       =    10.00 Bohr mag/cell
     absolute magnetization    =    11.89 Bohr mag/cell
[tb_dev] Currently allocated     1.54E+01 Mbytes, locked:    0 /  11
[tb_pin] Currently allocated     0.00E+00 Mbytes, locked:    0 /   0

     iteration # 11     ecut=    60.00 Ry     beta= 0.20
     Davidson diagonalization with overlap

---- Real-time Memory Report at c_bands before calling an iterative solver
          2240 MiB given to the printing process from OS
          1525 MiB allocation reported by mallinfo(arena+hblkhd)
         33436 MiB available memory on the node where the printing process lives
     GPU memory used/free/total (MiB): 3706 / 12574 / 16280
------------------
     ethr =  3.68E-05,  avg # of iterations =  1.0

     negative rho (up, down):  0.000E+00 7.182E-07

     total cpu time spent up to now is       40.9 secs

     total energy              =    -939.04315700 Ry
     estimated scf accuracy    <       0.20235695 Ry

     total magnetization       =    10.00 Bohr mag/cell
     absolute magnetization    =    11.90 Bohr mag/cell
[tb_dev] Currently allocated     1.54E+01 Mbytes, locked:    0 /  11
[tb_pin] Currently allocated     0.00E+00 Mbytes, locked:    0 /   0

     iteration # 12     ecut=    60.00 Ry     beta= 0.20
     Davidson diagonalization with overlap

---- Real-time Memory Report at c_bands before calling an iterative solver
          2266 MiB given to the printing process from OS
          1529 MiB allocation reported by mallinfo(arena+hblkhd)
         33433 MiB available memory on the node where the printing process lives
     GPU memory used/free/total (MiB): 3706 / 12574 / 16280
------------------
     c_bands:  3 eigenvalues not converged
     c_bands:  1 eigenvalues not converged
     c_bands:  1 eigenvalues not converged
     c_bands:  1 eigenvalues not converged
     c_bands:  1 eigenvalues not converged
     c_bands:  2 eigenvalues not converged
     ethr =  3.68E-05,  avg # of iterations =  8.7

     negative rho (up, down):  0.000E+00 1.051E-06

     total cpu time spent up to now is       45.9 secs

     total energy              =    -939.07715356 Ry
     estimated scf accuracy    <       0.14242587 Ry

     total magnetization       =    10.00 Bohr mag/cell
     absolute magnetization    =    15.03 Bohr mag/cell
[tb_dev] Currently allocated     1.54E+01 Mbytes, locked:    0 /  11
[tb_pin] Currently allocated     0.00E+00 Mbytes, locked:    0 /   0

     iteration # 13     ecut=    60.00 Ry     beta= 0.20
     Davidson diagonalization with overlap

---- Real-time Memory Report at c_bands before calling an iterative solver
          2298 MiB given to the printing process from OS
          1533 MiB allocation reported by mallinfo(arena+hblkhd)
         33429 MiB available memory on the node where the printing process lives
     GPU memory used/free/total (MiB): 3706 / 12574 / 16280
------------------
     ethr =  3.68E-05,  avg # of iterations =  1.1

     negative rho (up, down):  0.000E+00 1.706E-06

     total cpu time spent up to now is       48.8 secs

     total energy              =    -939.07547034 Ry
     estimated scf accuracy    <       0.14118519 Ry

     total magnetization       =    10.00 Bohr mag/cell
     absolute magnetization    =    15.04 Bohr mag/cell
[tb_dev] Currently allocated     1.54E+01 Mbytes, locked:    0 /  11
[tb_pin] Currently allocated     0.00E+00 Mbytes, locked:    0 /   0

     iteration # 14     ecut=    60.00 Ry     beta= 0.20
     Davidson diagonalization with overlap

---- Real-time Memory Report at c_bands before calling an iterative solver
          2323 MiB given to the printing process from OS
          1537 MiB allocation reported by mallinfo(arena+hblkhd)
         33423 MiB available memory on the node where the printing process lives
     GPU memory used/free/total (MiB): 3706 / 12574 / 16280
------------------
     ethr =  3.68E-05,  avg # of iterations =  1.0

     negative rho (up, down):  0.000E+00 1.691E-06

     total cpu time spent up to now is       51.7 secs

     total energy              =    -939.07462235 Ry
     estimated scf accuracy    <       0.13490335 Ry

     total magnetization       =    10.00 Bohr mag/cell
     absolute magnetization    =    15.04 Bohr mag/cell
[tb_dev] Currently allocated     1.54E+01 Mbytes, locked:    0 /  11
[tb_pin] Currently allocated     0.00E+00 Mbytes, locked:    0 /   0

     iteration # 15     ecut=    60.00 Ry     beta= 0.20
     Davidson diagonalization with overlap

---- Real-time Memory Report at c_bands before calling an iterative solver
          2343 MiB given to the printing process from OS
          1540 MiB allocation reported by mallinfo(arena+hblkhd)
         33422 MiB available memory on the node where the printing process lives
     GPU memory used/free/total (MiB): 3706 / 12574 / 16280
------------------
     ethr =  3.68E-05,  avg # of iterations =  1.0

     negative rho (up, down):  0.000E+00 2.512E-06

     total cpu time spent up to now is       54.6 secs

     total energy              =    -939.07153840 Ry
     estimated scf accuracy    <       0.13270478 Ry

     total magnetization       =    10.00 Bohr mag/cell
     absolute magnetization    =    15.05 Bohr mag/cell
[tb_dev] Currently allocated     1.54E+01 Mbytes, locked:    0 /  11
[tb_pin] Currently allocated     0.00E+00 Mbytes, locked:    0 /   0

     iteration # 16     ecut=    60.00 Ry     beta= 0.20
     Davidson diagonalization with overlap

---- Real-time Memory Report at c_bands before calling an iterative solver
          2358 MiB given to the printing process from OS
          1544 MiB allocation reported by mallinfo(arena+hblkhd)
         33419 MiB available memory on the node where the printing process lives
     GPU memory used/free/total (MiB): 3706 / 12574 / 16280
------------------
     ethr =  3.68E-05,  avg # of iterations =  1.0

     negative rho (up, down):  0.000E+00 2.150E-06

     total cpu time spent up to now is       57.6 secs

     total energy              =    -939.07423509 Ry
     estimated scf accuracy    <       0.12030959 Ry

     total magnetization       =    10.00 Bohr mag/cell
     absolute magnetization    =    15.04 Bohr mag/cell
[tb_dev] Currently allocated     1.54E+01 Mbytes, locked:    0 /  11
[tb_pin] Currently allocated     0.00E+00 Mbytes, locked:    0 /   0

     iteration # 17     ecut=    60.00 Ry     beta= 0.20
     Davidson diagonalization with overlap

---- Real-time Memory Report at c_bands before calling an iterative solver
          2377 MiB given to the printing process from OS
          1548 MiB allocation reported by mallinfo(arena+hblkhd)
         33415 MiB available memory on the node where the printing process lives
     GPU memory used/free/total (MiB): 3706 / 12574 / 16280
------------------
     ethr =  3.68E-05,  avg # of iterations =  1.0

     negative rho (up, down):  0.000E+00 3.014E-06

     total cpu time spent up to now is       60.4 secs

     total energy              =    -939.07184337 Ry
     estimated scf accuracy    <       0.12699622 Ry

     total magnetization       =    10.00 Bohr mag/cell
     absolute magnetization    =    15.03 Bohr mag/cell
[tb_dev] Currently allocated     1.54E+01 Mbytes, locked:    0 /  11
[tb_pin] Currently allocated     0.00E+00 Mbytes, locked:    0 /   0

     iteration # 18     ecut=    60.00 Ry     beta= 0.20
     Davidson diagonalization with overlap

---- Real-time Memory Report at c_bands before calling an iterative solver
          2397 MiB given to the printing process from OS
          1552 MiB allocation reported by mallinfo(arena+hblkhd)
         33411 MiB available memory on the node where the printing process lives
     GPU memory used/free/total (MiB): 3706 / 12574 / 16280
------------------
     ethr =  3.68E-05,  avg # of iterations =  1.0

     negative rho (up, down):  0.000E+00 2.862E-06

     total cpu time spent up to now is       63.4 secs

     total energy              =    -939.07229443 Ry
     estimated scf accuracy    <       0.11589733 Ry

     total magnetization       =    10.00 Bohr mag/cell
     absolute magnetization    =    15.02 Bohr mag/cell
[tb_dev] Currently allocated     1.54E+01 Mbytes, locked:    0 /  11
[tb_pin] Currently allocated     0.00E+00 Mbytes, locked:    0 /   0

     iteration # 19     ecut=    60.00 Ry     beta= 0.20
     Davidson diagonalization with overlap

---- Real-time Memory Report at c_bands before calling an iterative solver
          2416 MiB given to the printing process from OS
          1556 MiB allocation reported by mallinfo(arena+hblkhd)
         33407 MiB available memory on the node where the printing process lives
     GPU memory used/free/total (MiB): 3706 / 12574 / 16280
------------------
     ethr =  3.68E-05,  avg # of iterations =  1.0

     negative rho (up, down):  0.000E+00 2.564E-06

     total cpu time spent up to now is       66.3 secs

     total energy              =    -939.07282049 Ry
     estimated scf accuracy    <       0.11669151 Ry

     total magnetization       =    10.00 Bohr mag/cell
     absolute magnetization    =    15.01 Bohr mag/cell
[tb_dev] Currently allocated     1.54E+01 Mbytes, locked:    0 /  11
[tb_pin] Currently allocated     0.00E+00 Mbytes, locked:    0 /   0

     iteration # 20     ecut=    60.00 Ry     beta= 0.20
     Davidson diagonalization with overlap

---- Real-time Memory Report at c_bands before calling an iterative solver
          2441 MiB given to the printing process from OS
          1559 MiB allocation reported by mallinfo(arena+hblkhd)
         33404 MiB available memory on the node where the printing process lives
     GPU memory used/free/total (MiB): 3706 / 12574 / 16280
------------------
     ethr =  3.68E-05,  avg # of iterations =  1.0

     negative rho (up, down):  0.000E+00 2.494E-04

     total cpu time spent up to now is       69.2 secs

     total energy              =    -938.99208207 Ry
     estimated scf accuracy    <       0.11742249 Ry

     total magnetization       =    10.00 Bohr mag/cell
     absolute magnetization    =    15.00 Bohr mag/cell
[tb_dev] Currently allocated     1.54E+01 Mbytes, locked:    0 /  11
[tb_pin] Currently allocated     0.00E+00 Mbytes, locked:    0 /   0

     iteration # 21     ecut=    60.00 Ry     beta= 0.20
     Davidson diagonalization with overlap

---- Real-time Memory Report at c_bands before calling an iterative solver
          2464 MiB given to the printing process from OS
          1563 MiB allocation reported by mallinfo(arena+hblkhd)
         33400 MiB available memory on the node where the printing process lives
     GPU memory used/free/total (MiB): 3706 / 12574 / 16280
------------------
     c_bands:  4 eigenvalues not converged
     c_bands:  5 eigenvalues not converged
     c_bands:  1 eigenvalues not converged
     c_bands:  2 eigenvalues not converged
     c_bands:  4 eigenvalues not converged
     c_bands:  1 eigenvalues not converged
     c_bands:  3 eigenvalues not converged
     ethr =  3.68E-05,  avg # of iterations = 14.9

     negative rho (up, down):  0.000E+00 1.083E-04

     total cpu time spent up to now is       78.5 secs

     total energy              =    -939.18497878 Ry
     estimated scf accuracy    <       1.65670921 Ry

     total magnetization       =    10.00 Bohr mag/cell
     absolute magnetization    =    10.71 Bohr mag/cell
[tb_dev] Currently allocated     1.54E+01 Mbytes, locked:    0 /  11
[tb_pin] Currently allocated     0.00E+00 Mbytes, locked:    0 /   0

     iteration # 22     ecut=    60.00 Ry     beta= 0.20
     Davidson diagonalization with overlap

---- Real-time Memory Report at c_bands before calling an iterative solver
          2483 MiB given to the printing process from OS
          1567 MiB allocation reported by mallinfo(arena+hblkhd)
         33396 MiB available memory on the node where the printing process lives
     GPU memory used/free/total (MiB): 3706 / 12574 / 16280
------------------
     ethr =  3.68E-05,  avg # of iterations =  3.5

     negative rho (up, down):  0.000E+00 4.499E-05

     total cpu time spent up to now is       82.2 secs

     total energy              =    -939.08479447 Ry
     estimated scf accuracy    <       1.27863558 Ry

     total magnetization       =    10.00 Bohr mag/cell
     absolute magnetization    =    10.84 Bohr mag/cell
[tb_dev] Currently allocated     1.54E+01 Mbytes, locked:    0 /  11
[tb_pin] Currently allocated     0.00E+00 Mbytes, locked:    0 /   0

     iteration # 23     ecut=    60.00 Ry     beta= 0.20
     Davidson diagonalization with overlap

---- Real-time Memory Report at c_bands before calling an iterative solver
          2486 MiB given to the printing process from OS
          1571 MiB allocation reported by mallinfo(arena+hblkhd)
         33393 MiB available memory on the node where the printing process lives
     GPU memory used/free/total (MiB): 3706 / 12574 / 16280
------------------
     c_bands:  1 eigenvalues not converged
     ethr =  3.68E-05,  avg # of iterations =  6.5

     negative rho (up, down):  0.000E+00 5.045E-05

     total cpu time spent up to now is       86.7 secs

     total energy              =    -939.10154713 Ry
     estimated scf accuracy    <       0.81395091 Ry

     total magnetization       =    10.00 Bohr mag/cell
     absolute magnetization    =    10.88 Bohr mag/cell
[tb_dev] Currently allocated     1.54E+01 Mbytes, locked:    0 /  11
[tb_pin] Currently allocated     0.00E+00 Mbytes, locked:    0 /   0

     iteration # 24     ecut=    60.00 Ry     beta= 0.20
     Davidson diagonalization with overlap

---- Real-time Memory Report at c_bands before calling an iterative solver
          2493 MiB given to the printing process from OS
          1575 MiB allocation reported by mallinfo(arena+hblkhd)
         33389 MiB available memory on the node where the printing process lives
     GPU memory used/free/total (MiB): 3706 / 12574 / 16280
------------------
     ethr =  3.68E-05,  avg # of iterations =  1.1

     negative rho (up, down):  0.000E+00 2.139E-05

     total cpu time spent up to now is       89.6 secs

     total energy              =    -939.05604193 Ry
     estimated scf accuracy    <       0.82894827 Ry

     total magnetization       =    10.00 Bohr mag/cell
     absolute magnetization    =    10.88 Bohr mag/cell
[tb_dev] Currently allocated     1.54E+01 Mbytes, locked:    0 /  11
[tb_pin] Currently allocated     0.00E+00 Mbytes, locked:    0 /   0

     iteration # 25     ecut=    60.00 Ry     beta= 0.20
     Davidson diagonalization with overlap

---- Real-time Memory Report at c_bands before calling an iterative solver
          2501 MiB given to the printing process from OS
          1579 MiB allocation reported by mallinfo(arena+hblkhd)
         33386 MiB available memory on the node where the printing process lives
     GPU memory used/free/total (MiB): 3706 / 12574 / 16280
------------------
     c_bands:  4 eigenvalues not converged
     ethr =  3.68E-05,  avg # of iterations =  5.2

     negative rho (up, down):  0.000E+00 6.676E-06

     total cpu time spent up to now is       93.4 secs

     total energy              =    -939.05153394 Ry
     estimated scf accuracy    <       0.33962806 Ry

     total magnetization       =    10.00 Bohr mag/cell
     absolute magnetization    =    11.55 Bohr mag/cell
[tb_dev] Currently allocated     1.54E+01 Mbytes, locked:    0 /  11
[tb_pin] Currently allocated     0.00E+00 Mbytes, locked:    0 /   0

     iteration # 26     ecut=    60.00 Ry     beta= 0.20
     Davidson diagonalization with overlap

---- Real-time Memory Report at c_bands before calling an iterative solver
          2508 MiB given to the printing process from OS
          1582 MiB allocation reported by mallinfo(arena+hblkhd)
         33382 MiB available memory on the node where the printing process lives
     GPU memory used/free/total (MiB): 3706 / 12574 / 16280
------------------
     c_bands:  4 eigenvalues not converged
     c_bands:  1 eigenvalues not converged
     ethr =  3.68E-05,  avg # of iterations =  4.5

     negative rho (up, down):  0.000E+00 7.135E-06

     total cpu time spent up to now is       97.0 secs

     total energy              =    -939.06356640 Ry
     estimated scf accuracy    <       0.06206227 Ry

     total magnetization       =    10.00 Bohr mag/cell
     absolute magnetization    =    12.62 Bohr mag/cell
[tb_dev] Currently allocated     1.54E+01 Mbytes, locked:    0 /  11
[tb_pin] Currently allocated     0.00E+00 Mbytes, locked:    0 /   0

     iteration # 27     ecut=    60.00 Ry     beta= 0.20
     Davidson diagonalization with overlap

---- Real-time Memory Report at c_bands before calling an iterative solver
          2515 MiB given to the printing process from OS
          1586 MiB allocation reported by mallinfo(arena+hblkhd)
         33378 MiB available memory on the node where the printing process lives
     GPU memory used/free/total (MiB): 3706 / 12574 / 16280
------------------
     ethr =  3.68E-05,  avg # of iterations =  1.1

     negative rho (up, down):  0.000E+00 5.821E-06

     total cpu time spent up to now is       99.9 secs

     total energy              =    -939.06213656 Ry
     estimated scf accuracy    <       0.06511216 Ry

     total magnetization       =    10.00 Bohr mag/cell
     absolute magnetization    =    12.62 Bohr mag/cell
[tb_dev] Currently allocated     1.54E+01 Mbytes, locked:    0 /  11
[tb_pin] Currently allocated     0.00E+00 Mbytes, locked:    0 /   0

     iteration # 28     ecut=    60.00 Ry     beta= 0.20
     Davidson diagonalization with overlap

---- Real-time Memory Report at c_bands before calling an iterative solver
          2522 MiB given to the printing process from OS
          1590 MiB allocation reported by mallinfo(arena+hblkhd)
         33374 MiB available memory on the node where the printing process lives
     GPU memory used/free/total (MiB): 3706 / 12574 / 16280
------------------
     ethr =  3.68E-05,  avg # of iterations =  1.0

     negative rho (up, down):  0.000E+00 5.313E-06

     total cpu time spent up to now is      102.8 secs

     total energy              =    -939.06210326 Ry
     estimated scf accuracy    <       0.05934879 Ry

     total magnetization       =    10.00 Bohr mag/cell
     absolute magnetization    =    12.61 Bohr mag/cell
[tb_dev] Currently allocated     1.54E+01 Mbytes, locked:    0 /  11
[tb_pin] Currently allocated     0.00E+00 Mbytes, locked:    0 /   0

     iteration # 29     ecut=    60.00 Ry     beta= 0.20
     Davidson diagonalization with overlap

---- Real-time Memory Report at c_bands before calling an iterative solver
          2530 MiB given to the printing process from OS
          1594 MiB allocation reported by mallinfo(arena+hblkhd)
         33369 MiB available memory on the node where the printing process lives
     GPU memory used/free/total (MiB): 3706 / 12574 / 16280
------------------
     ethr =  3.68E-05,  avg # of iterations =  1.0

     negative rho (up, down):  0.000E+00 3.580E-06

     total cpu time spent up to now is      105.7 secs

     total energy              =    -939.06182100 Ry
     estimated scf accuracy    <       0.05806679 Ry

     total magnetization       =    10.00 Bohr mag/cell
     absolute magnetization    =    12.61 Bohr mag/cell
[tb_dev] Currently allocated     1.54E+01 Mbytes, locked:    0 /  11
[tb_pin] Currently allocated     0.00E+00 Mbytes, locked:    0 /   0

     iteration # 30     ecut=    60.00 Ry     beta= 0.20
     Davidson diagonalization with overlap

---- Real-time Memory Report at c_bands before calling an iterative solver
          2538 MiB given to the printing process from OS
          1599 MiB allocation reported by mallinfo(arena+hblkhd)
         33365 MiB available memory on the node where the printing process lives
     GPU memory used/free/total (MiB): 3706 / 12574 / 16280
------------------
     ethr =  3.68E-05,  avg # of iterations =  1.0

     negative rho (up, down):  0.000E+00 3.458E-06

     total cpu time spent up to now is      108.6 secs

     total energy              =    -939.06163526 Ry
     estimated scf accuracy    <       0.05549376 Ry

     total magnetization       =    10.00 Bohr mag/cell
     absolute magnetization    =    12.61 Bohr mag/cell
[tb_dev] Currently allocated     1.54E+01 Mbytes, locked:    0 /  11
[tb_pin] Currently allocated     0.00E+00 Mbytes, locked:    0 /   0

     iteration # 31     ecut=    60.00 Ry     beta= 0.20
     Davidson diagonalization with overlap

---- Real-time Memory Report at c_bands before calling an iterative solver
          2544 MiB given to the printing process from OS
          1603 MiB allocation reported by mallinfo(arena+hblkhd)
         33362 MiB available memory on the node where the printing process lives
     GPU memory used/free/total (MiB): 3706 / 12574 / 16280
------------------
     ethr =  3.68E-05,  avg # of iterations =  1.0

     negative rho (up, down):  0.000E+00 1.440E-06

     total cpu time spent up to now is      111.5 secs

     total energy              =    -939.05626399 Ry
     estimated scf accuracy    <       0.05407184 Ry

     total magnetization       =    10.00 Bohr mag/cell
     absolute magnetization    =    12.61 Bohr mag/cell
[tb_dev] Currently allocated     1.54E+01 Mbytes, locked:    0 /  11
[tb_pin] Currently allocated     0.00E+00 Mbytes, locked:    0 /   0

     iteration # 32     ecut=    60.00 Ry     beta= 0.20
     Davidson diagonalization with overlap

---- Real-time Memory Report at c_bands before calling an iterative solver
          2547 MiB given to the printing process from OS
          1607 MiB allocation reported by mallinfo(arena+hblkhd)
         33357 MiB available memory on the node where the printing process lives
     GPU memory used/free/total (MiB): 3706 / 12574 / 16280
------------------
     ethr =  3.68E-05,  avg # of iterations =  4.6

     negative rho (up, down):  0.000E+00 3.234E-06

     total cpu time spent up to now is      115.2 secs

     total energy              =    -939.06581164 Ry
     estimated scf accuracy    <       0.04995697 Ry

     total magnetization       =    10.00 Bohr mag/cell
     absolute magnetization    =    14.44 Bohr mag/cell
[tb_dev] Currently allocated     1.54E+01 Mbytes, locked:    0 /  11
[tb_pin] Currently allocated     0.00E+00 Mbytes, locked:    0 /   0

     iteration # 33     ecut=    60.00 Ry     beta= 0.20
     Davidson diagonalization with overlap

---- Real-time Memory Report at c_bands before calling an iterative solver
          2552 MiB given to the printing process from OS
          1611 MiB allocation reported by mallinfo(arena+hblkhd)
         33354 MiB available memory on the node where the printing process lives
     GPU memory used/free/total (MiB): 3706 / 12574 / 16280
------------------
     ethr =  3.68E-05,  avg # of iterations =  1.0

     negative rho (up, down):  0.000E+00 3.006E-06

     total cpu time spent up to now is      118.0 secs

     total energy              =    -939.06618717 Ry
     estimated scf accuracy    <       0.04258387 Ry

     total magnetization       =    10.00 Bohr mag/cell
     absolute magnetization    =    14.45 Bohr mag/cell
[tb_dev] Currently allocated     1.54E+01 Mbytes, locked:    0 /  11
[tb_pin] Currently allocated     0.00E+00 Mbytes, locked:    0 /   0

     iteration # 34     ecut=    60.00 Ry     beta= 0.20
     Davidson diagonalization with overlap

---- Real-time Memory Report at c_bands before calling an iterative solver
          2555 MiB given to the printing process from OS
          1615 MiB allocation reported by mallinfo(arena+hblkhd)
         33350 MiB available memory on the node where the printing process lives
     GPU memory used/free/total (MiB): 3706 / 12574 / 16280
------------------
     ethr =  3.68E-05,  avg # of iterations =  1.0

     negative rho (up, down):  0.000E+00 4.160E-06

     total cpu time spent up to now is      120.9 secs

     total energy              =    -939.06408365 Ry
     estimated scf accuracy    <       0.04322106 Ry

     total magnetization       =    10.00 Bohr mag/cell
     absolute magnetization    =    14.45 Bohr mag/cell
[tb_dev] Currently allocated     1.54E+01 Mbytes, locked:    0 /  11
[tb_pin] Currently allocated     0.00E+00 Mbytes, locked:    0 /   0

     iteration # 35     ecut=    60.00 Ry     beta= 0.20
     Davidson diagonalization with overlap

---- Real-time Memory Report at c_bands before calling an iterative solver
          2561 MiB given to the printing process from OS
          1620 MiB allocation reported by mallinfo(arena+hblkhd)
         33347 MiB available memory on the node where the printing process lives
     GPU memory used/free/total (MiB): 3706 / 12574 / 16280
------------------
     ethr =  3.68E-05,  avg # of iterations =  1.0

     negative rho (up, down):  0.000E+00 6.897E-06

     total cpu time spent up to now is      123.9 secs

     total energy              =    -939.06226469 Ry
     estimated scf accuracy    <       0.03521337 Ry

     total magnetization       =    10.00 Bohr mag/cell
     absolute magnetization    =    14.44 Bohr mag/cell
[tb_dev] Currently allocated     1.54E+01 Mbytes, locked:    0 /  11
[tb_pin] Currently allocated     0.00E+00 Mbytes, locked:    0 /   0

     iteration # 36     ecut=    60.00 Ry     beta= 0.20
     Davidson diagonalization with overlap

---- Real-time Memory Report at c_bands before calling an iterative solver
          2561 MiB given to the printing process from OS
          1624 MiB allocation reported by mallinfo(arena+hblkhd)
         33341 MiB available memory on the node where the printing process lives
     GPU memory used/free/total (MiB): 3706 / 12574 / 16280
------------------
     ethr =  3.68E-05,  avg # of iterations =  1.0

     negative rho (up, down):  0.000E+00 3.993E-06

     total cpu time spent up to now is      126.7 secs

     total energy              =    -939.06470540 Ry
     estimated scf accuracy    <       0.02842548 Ry

     total magnetization       =    10.00 Bohr mag/cell
     absolute magnetization    =    14.45 Bohr mag/cell
[tb_dev] Currently allocated     1.54E+01 Mbytes, locked:    0 /  11
[tb_pin] Currently allocated     0.00E+00 Mbytes, locked:    0 /   0

     iteration # 37     ecut=    60.00 Ry     beta= 0.20
     Davidson diagonalization with overlap

---- Real-time Memory Report at c_bands before calling an iterative solver
          2564 MiB given to the printing process from OS
          1628 MiB allocation reported by mallinfo(arena+hblkhd)
         33337 MiB available memory on the node where the printing process lives
     GPU memory used/free/total (MiB): 3706 / 12574 / 16280
------------------
     ethr =  3.68E-05,  avg # of iterations =  1.0

     negative rho (up, down):  0.000E+00 1.011E-05

     total cpu time spent up to now is      129.7 secs

     total energy              =    -939.06023735 Ry
     estimated scf accuracy    <       0.03472758 Ry

     total magnetization       =    10.00 Bohr mag/cell
     absolute magnetization    =    14.42 Bohr mag/cell
[tb_dev] Currently allocated     1.54E+01 Mbytes, locked:    0 /  11
[tb_pin] Currently allocated     0.00E+00 Mbytes, locked:    0 /   0

     iteration # 38     ecut=    60.00 Ry     beta= 0.20
     Davidson diagonalization with overlap

---- Real-time Memory Report at c_bands before calling an iterative solver
          2567 MiB given to the printing process from OS
          1632 MiB allocation reported by mallinfo(arena+hblkhd)
         33334 MiB available memory on the node where the printing process lives
     GPU memory used/free/total (MiB): 3706 / 12574 / 16280
------------------
     ethr =  3.68E-05,  avg # of iterations =  4.1

     negative rho (up, down):  0.000E+00 9.160E-06

     total cpu time spent up to now is      133.3 secs

     total energy              =    -939.06583309 Ry
     estimated scf accuracy    <       0.01169372 Ry

     total magnetization       =    10.00 Bohr mag/cell
     absolute magnetization    =    13.29 Bohr mag/cell
[tb_dev] Currently allocated     1.54E+01 Mbytes, locked:    0 /  11
[tb_pin] Currently allocated     0.00E+00 Mbytes, locked:    0 /   0

     iteration # 39     ecut=    60.00 Ry     beta= 0.20
     Davidson diagonalization with overlap

---- Real-time Memory Report at c_bands before calling an iterative solver
          2572 MiB given to the printing process from OS
          1636 MiB allocation reported by mallinfo(arena+hblkhd)
         33331 MiB available memory on the node where the printing process lives
     GPU memory used/free/total (MiB): 3706 / 12574 / 16280
------------------
     ethr =  2.17E-05,  avg # of iterations =  1.1

     negative rho (up, down):  0.000E+00 8.641E-06

     total cpu time spent up to now is      136.2 secs

     total energy              =    -939.06582148 Ry
     estimated scf accuracy    <       0.01129587 Ry

     total magnetization       =    10.00 Bohr mag/cell
     absolute magnetization    =    13.28 Bohr mag/cell
[tb_dev] Currently allocated     1.54E+01 Mbytes, locked:    0 /  11
[tb_pin] Currently allocated     0.00E+00 Mbytes, locked:    0 /   0

     iteration # 40     ecut=    60.00 Ry     beta= 0.20
     Davidson diagonalization with overlap

---- Real-time Memory Report at c_bands before calling an iterative solver
          2576 MiB given to the printing process from OS
          1641 MiB allocation reported by mallinfo(arena+hblkhd)
         33326 MiB available memory on the node where the printing process lives
     GPU memory used/free/total (MiB): 3706 / 12574 / 16280
------------------
     ethr =  2.09E-05,  avg # of iterations =  1.0

     negative rho (up, down):  0.000E+00 1.014E-05

     total cpu time spent up to now is      139.1 secs

     total energy              =    -939.06652194 Ry
     estimated scf accuracy    <       0.01137967 Ry

     total magnetization       =    10.00 Bohr mag/cell
     absolute magnetization    =    13.28 Bohr mag/cell
[tb_dev] Currently allocated     1.54E+01 Mbytes, locked:    0 /  11
[tb_pin] Currently allocated     0.00E+00 Mbytes, locked:    0 /   0

     iteration # 41     ecut=    60.00 Ry     beta= 0.20
     Davidson diagonalization with overlap

---- Real-time Memory Report at c_bands before calling an iterative solver
          2580 MiB given to the printing process from OS
          1645 MiB allocation reported by mallinfo(arena+hblkhd)
         33322 MiB available memory on the node where the printing process lives
     GPU memory used/free/total (MiB): 3706 / 12574 / 16280
------------------
     ethr =  2.09E-05,  avg # of iterations =  2.6

     negative rho (up, down):  0.000E+00 7.054E-06

     total cpu time spent up to now is      142.3 secs

     total energy              =    -939.06574852 Ry
     estimated scf accuracy    <       0.03746100 Ry

     total magnetization       =    10.00 Bohr mag/cell
     absolute magnetization    =    12.95 Bohr mag/cell
[tb_dev] Currently allocated     1.54E+01 Mbytes, locked:    0 /  11
[tb_pin] Currently allocated     0.00E+00 Mbytes, locked:    0 /   0

     iteration # 42     ecut=    60.00 Ry     beta= 0.20
     Davidson diagonalization with overlap

---- Real-time Memory Report at c_bands before calling an iterative solver
          2584 MiB given to the printing process from OS
          1649 MiB allocation reported by mallinfo(arena+hblkhd)
         33317 MiB available memory on the node where the printing process lives
     GPU memory used/free/total (MiB): 3706 / 12574 / 16280
------------------
     ethr =  2.09E-05,  avg # of iterations =  1.3

     negative rho (up, down):  0.000E+00 8.918E-06

     total cpu time spent up to now is      145.2 secs

     total energy              =    -939.06723283 Ry
     estimated scf accuracy    <       0.02752943 Ry

     total magnetization       =    10.00 Bohr mag/cell
     absolute magnetization    =    13.00 Bohr mag/cell
[tb_dev] Currently allocated     1.54E+01 Mbytes, locked:    0 /  11
[tb_pin] Currently allocated     0.00E+00 Mbytes, locked:    0 /   0

     iteration # 43     ecut=    60.00 Ry     beta= 0.20
     Davidson diagonalization with overlap

---- Real-time Memory Report at c_bands before calling an iterative solver
          2588 MiB given to the printing process from OS
          1653 MiB allocation reported by mallinfo(arena+hblkhd)
         33313 MiB available memory on the node where the printing process lives
     GPU memory used/free/total (MiB): 3706 / 12574 / 16280
------------------
     ethr =  2.09E-05,  avg # of iterations =  1.1

     negative rho (up, down):  0.000E+00 7.159E-06

     total cpu time spent up to now is      148.1 secs

     total energy              =    -939.06599203 Ry
     estimated scf accuracy    <       0.03159023 Ry

     total magnetization       =    10.00 Bohr mag/cell
     absolute magnetization    =    12.99 Bohr mag/cell
[tb_dev] Currently allocated     1.54E+01 Mbytes, locked:    0 /  11
[tb_pin] Currently allocated     0.00E+00 Mbytes, locked:    0 /   0

     iteration # 44     ecut=    60.00 Ry     beta= 0.20
     Davidson diagonalization with overlap

---- Real-time Memory Report at c_bands before calling an iterative solver
          2593 MiB given to the printing process from OS
          1657 MiB allocation reported by mallinfo(arena+hblkhd)
         33310 MiB available memory on the node where the printing process lives
     GPU memory used/free/total (MiB): 3706 / 12574 / 16280
------------------
     ethr =  2.09E-05,  avg # of iterations =  1.0

     negative rho (up, down):  0.000E+00 5.425E-06

     total cpu time spent up to now is      151.0 secs

     total energy              =    -939.06446422 Ry
     estimated scf accuracy    <       0.02797735 Ry

     total magnetization       =    10.00 Bohr mag/cell
     absolute magnetization    =    12.99 Bohr mag/cell
[tb_dev] Currently allocated     1.54E+01 Mbytes, locked:    0 /  11
[tb_pin] Currently allocated     0.00E+00 Mbytes, locked:    0 /   0

     iteration # 45     ecut=    60.00 Ry     beta= 0.20
     Davidson diagonalization with overlap

---- Real-time Memory Report at c_bands before calling an iterative solver
          2601 MiB given to the printing process from OS
          1662 MiB allocation reported by mallinfo(arena+hblkhd)
         33306 MiB available memory on the node where the printing process lives
     GPU memory used/free/total (MiB): 3706 / 12574 / 16280
------------------
     ethr =  2.09E-05,  avg # of iterations =  1.0

     negative rho (up, down):  0.000E+00 6.678E-06

     total cpu time spent up to now is      153.9 secs

     total energy              =    -939.06564061 Ry
     estimated scf accuracy    <       0.02226821 Ry

     total magnetization       =    10.00 Bohr mag/cell
     absolute magnetization    =    12.99 Bohr mag/cell
[tb_dev] Currently allocated     1.54E+01 Mbytes, locked:    0 /  11
[tb_pin] Currently allocated     0.00E+00 Mbytes, locked:    0 /   0

     iteration # 46     ecut=    60.00 Ry     beta= 0.20
     Davidson diagonalization with overlap

---- Real-time Memory Report at c_bands before calling an iterative solver
          2606 MiB given to the printing process from OS
          1666 MiB allocation reported by mallinfo(arena+hblkhd)
         33302 MiB available memory on the node where the printing process lives
     GPU memory used/free/total (MiB): 3706 / 12574 / 16280
------------------
     ethr =  2.09E-05,  avg # of iterations =  1.0

     negative rho (up, down):  0.000E+00 7.595E-06

     total cpu time spent up to now is      156.8 secs

     total energy              =    -939.06595414 Ry
     estimated scf accuracy    <       0.02506066 Ry

     total magnetization       =    10.00 Bohr mag/cell
     absolute magnetization    =    13.01 Bohr mag/cell
[tb_dev] Currently allocated     1.54E+01 Mbytes, locked:    0 /  11
[tb_pin] Currently allocated     0.00E+00 Mbytes, locked:    0 /   0

     iteration # 47     ecut=    60.00 Ry     beta= 0.20
     Davidson diagonalization with overlap

---- Real-time Memory Report at c_bands before calling an iterative solver
          2614 MiB given to the printing process from OS
          1670 MiB allocation reported by mallinfo(arena+hblkhd)
         33295 MiB available memory on the node where the printing process lives
     GPU memory used/free/total (MiB): 3706 / 12574 / 16280
------------------
     ethr =  2.09E-05,  avg # of iterations =  1.0

     negative rho (up, down):  0.000E+00 7.879E-06

     total cpu time spent up to now is      159.7 secs

     total energy              =    -939.06585714 Ry
     estimated scf accuracy    <       0.02630612 Ry

     total magnetization       =    10.00 Bohr mag/cell
     absolute magnetization    =    13.01 Bohr mag/cell
[tb_dev] Currently allocated     1.54E+01 Mbytes, locked:    0 /  11
[tb_pin] Currently allocated     0.00E+00 Mbytes, locked:    0 /   0

     iteration # 48     ecut=    60.00 Ry     beta= 0.20
     Davidson diagonalization with overlap

---- Real-time Memory Report at c_bands before calling an iterative solver
          2619 MiB given to the printing process from OS
          1674 MiB allocation reported by mallinfo(arena+hblkhd)
         33292 MiB available memory on the node where the printing process lives
     GPU memory used/free/total (MiB): 3706 / 12574 / 16280
------------------
     ethr =  2.09E-05,  avg # of iterations =  1.0

     negative rho (up, down):  0.000E+00 5.379E-06

     total cpu time spent up to now is      162.6 secs

     total energy              =    -939.06409635 Ry
     estimated scf accuracy    <       0.02616221 Ry

     total magnetization       =    10.00 Bohr mag/cell
     absolute magnetization    =    13.01 Bohr mag/cell
[tb_dev] Currently allocated     1.54E+01 Mbytes, locked:    0 /  11
[tb_pin] Currently allocated     0.00E+00 Mbytes, locked:    0 /   0

     iteration # 49     ecut=    60.00 Ry     beta= 0.20
     Davidson diagonalization with overlap

---- Real-time Memory Report at c_bands before calling an iterative solver
          2622 MiB given to the printing process from OS
          1678 MiB allocation reported by mallinfo(arena+hblkhd)
         33289 MiB available memory on the node where the printing process lives
     GPU memory used/free/total (MiB): 3706 / 12574 / 16280
------------------
     ethr =  2.09E-05,  avg # of iterations =  2.7

     negative rho (up, down):  0.000E+00 1.475E-06

     total cpu time spent up to now is      165.8 secs

[...]
     estimated scf accuracy    <       0.04047905 Ry

     total magnetization       =    10.00 Bohr mag/cell
     absolute magnetization    =    14.47 Bohr mag/cell
[tb_dev] Currently allocated     1.54E+01 Mbytes, locked:    0 /  11
[tb_pin] Currently allocated     0.00E+00 Mbytes, locked:    0 /   0

     iteration # 69     ecut=    60.00 Ry     beta= 0.20
     Davidson diagonalization with overlap

---- Real-time Memory Report at c_bands before calling an iterative solver
          2711 MiB given to the printing process from OS
          1762 MiB allocation reported by mallinfo(arena+hblkhd)
         33205 MiB available memory on the node where the printing process lives
     GPU memory used/free/total (MiB): 3706 / 12574 / 16280
------------------
     c_bands:  3 eigenvalues not converged
     c_bands:  3 eigenvalues not converged
     c_bands:  3 eigenvalues not converged
     c_bands:  2 eigenvalues not converged
     c_bands:  3 eigenvalues not converged
     c_bands:  4 eigenvalues not converged
     c_bands:  2 eigenvalues not converged
     ethr =  1.54E-05,  avg # of iterations =  9.6

     negative rho (up, down):  0.000E+00 1.097E-05

     total cpu time spent up to now is      234.9 secs

     total energy              =    -939.06694720 Ry
     estimated scf accuracy    <       0.20708254 Ry

     total magnetization       =    10.00 Bohr mag/cell
     absolute magnetization    =    12.05 Bohr mag/cell
[tb_dev] Currently allocated     1.54E+01 Mbytes, locked:    0 /  11
[tb_pin] Currently allocated     0.00E+00 Mbytes, locked:    0 /   0

     iteration # 70     ecut=    60.00 Ry     beta= 0.20
     Davidson diagonalization with overlap

---- Real-time Memory Report at c_bands before calling an iterative solver
          2715 MiB given to the printing process from OS
          1766 MiB allocation reported by mallinfo(arena+hblkhd)
         33202 MiB available memory on the node where the printing process lives
     GPU memory used/free/total (MiB): 3706 / 12574 / 16280
------------------
     ethr =  1.54E-05,  avg # of iterations =  3.1

     negative rho (up, down):  0.000E+00 5.955E-06

     total cpu time spent up to now is      238.3 secs

     total energy              =    -939.06241683 Ry
     estimated scf accuracy    <       0.14992880 Ry

     total magnetization       =    10.00 Bohr mag/cell
     absolute magnetization    =    12.13 Bohr mag/cell
[tb_dev] Currently allocated     1.54E+01 Mbytes, locked:    0 /  11
[tb_pin] Currently allocated     0.00E+00 Mbytes, locked:    0 /   0

     iteration # 71     ecut=    60.00 Ry     beta= 0.20
     Davidson diagonalization with overlap

---- Real-time Memory Report at c_bands before calling an iterative solver
          2720 MiB given to the printing process from OS
          1771 MiB allocation reported by mallinfo(arena+hblkhd)
         33197 MiB available memory on the node where the printing process lives
     GPU memory used/free/total (MiB): 3706 / 12574 / 16280
------------------
     ethr =  1.54E-05,  avg # of iterations =  4.8

     negative rho (up, down):  0.000E+00 3.864E-06

     total cpu time spent up to now is      242.0 secs

     total energy              =    -939.06603470 Ry
     estimated scf accuracy    <       0.01346981 Ry

     total magnetization       =    10.00 Bohr mag/cell
     absolute magnetization    =    13.17 Bohr mag/cell
[tb_dev] Currently allocated     1.54E+01 Mbytes, locked:    0 /  11
[tb_pin] Currently allocated     0.00E+00 Mbytes, locked:    0 /   0

     iteration # 72     ecut=    60.00 Ry     beta= 0.20
     Davidson diagonalization with overlap

---- Real-time Memory Report at c_bands before calling an iterative solver
          2724 MiB given to the printing process from OS
          1775 MiB allocation reported by mallinfo(arena+hblkhd)
         33195 MiB available memory on the node where the printing process lives
     GPU memory used/free/total (MiB): 3706 / 12574 / 16280
------------------
     ethr =  1.54E-05,  avg # of iterations =  2.8

     negative rho (up, down):  0.000E+00 9.441E-06

     total cpu time spent up to now is      245.3 secs

     total energy              =    -939.06795265 Ry
     estimated scf accuracy    <       0.00005000 Ry

     total magnetization       =    10.00 Bohr mag/cell
     absolute magnetization    =    13.62 Bohr mag/cell
[tb_dev] Currently allocated     1.54E+01 Mbytes, locked:    0 /  11
[tb_pin] Currently allocated     0.00E+00 Mbytes, locked:    0 /   0

     iteration # 73     ecut=    60.00 Ry     beta= 0.20
     Davidson diagonalization with overlap

---- Real-time Memory Report at c_bands before calling an iterative solver
          2728 MiB given to the printing process from OS
          1779 MiB allocation reported by mallinfo(arena+hblkhd)
         33188 MiB available memory on the node where the printing process lives
     GPU memory used/free/total (MiB): 3706 / 12574 / 16280
------------------
     c_bands:  3 eigenvalues not converged
     c_bands:  1 eigenvalues not converged
     c_bands:  2 eigenvalues not converged
     c_bands:  2 eigenvalues not converged
     c_bands:  4 eigenvalues not converged
     c_bands:  4 eigenvalues not converged
     c_bands:  2 eigenvalues not converged
     c_bands:  3 eigenvalues not converged
     c_bands:  5 eigenvalues not converged
     c_bands:  1 eigenvalues not converged
     c_bands:  2 eigenvalues not converged
     c_bands:  2 eigenvalues not converged
     c_bands:  1 eigenvalues not converged
     c_bands:  2 eigenvalues not converged
     c_bands:  1 eigenvalues not converged
     c_bands:  3 eigenvalues not converged
     c_bands:  4 eigenvalues not converged
     ethr =  9.26E-08,  avg # of iterations = 14.3

     negative rho (up, down):  0.000E+00 9.056E-06

     total cpu time spent up to now is      253.0 secs

     total energy              =    -939.06937091 Ry
     estimated scf accuracy    <       0.02292877 Ry

     total magnetization       =    10.00 Bohr mag/cell
     absolute magnetization    =    13.10 Bohr mag/cell
[tb_dev] Currently allocated     1.54E+01 Mbytes, locked:    0 /  11
[tb_pin] Currently allocated     0.00E+00 Mbytes, locked:    0 /   0

     iteration # 74     ecut=    60.00 Ry     beta= 0.20
     Davidson diagonalization with overlap

---- Real-time Memory Report at c_bands before calling an iterative solver
          2732 MiB given to the printing process from OS
          1783 MiB allocation reported by mallinfo(arena+hblkhd)
         33186 MiB available memory on the node where the printing process lives
     GPU memory used/free/total (MiB): 3706 / 12574 / 16280
------------------
     c_bands:  1 eigenvalues not converged
     c_bands:  2 eigenvalues not converged
     ethr =  9.26E-08,  avg # of iterations =  4.7

     negative rho (up, down):  0.000E+00 9.940E-06

     total cpu time spent up to now is      256.6 secs

     total energy              =    -939.06988402 Ry
     estimated scf accuracy    <       0.02100581 Ry

     total magnetization       =    10.00 Bohr mag/cell
     absolute magnetization    =    13.12 Bohr mag/cell
[tb_dev] Currently allocated     1.54E+01 Mbytes, locked:    0 /  11
[tb_pin] Currently allocated     0.00E+00 Mbytes, locked:    0 /   0

     iteration # 75     ecut=    60.00 Ry     beta= 0.20
     Davidson diagonalization with overlap

---- Real-time Memory Report at c_bands before calling an iterative solver
          2741 MiB given to the printing process from OS
          1787 MiB allocation reported by mallinfo(arena+hblkhd)
         33179 MiB available memory on the node where the printing process lives
     GPU memory used/free/total (MiB): 3706 / 12574 / 16280
------------------
     ethr =  9.26E-08,  avg # of iterations =  4.9

     negative rho (up, down):  0.000E+00 1.098E-05

     total cpu time spent up to now is      260.4 secs

     total energy              =    -939.07031125 Ry
     estimated scf accuracy    <       0.02755840 Ry

     total magnetization       =    10.00 Bohr mag/cell
     absolute magnetization    =    13.04 Bohr mag/cell
[tb_dev] Currently allocated     1.54E+01 Mbytes, locked:    0 /  11
[tb_pin] Currently allocated     0.00E+00 Mbytes, locked:    0 /   0

     iteration # 76     ecut=    60.00 Ry     beta= 0.20
     Davidson diagonalization with overlap

---- Real-time Memory Report at c_bands before calling an iterative solver
          2745 MiB given to the printing process from OS
          1792 MiB allocation reported by mallinfo(arena+hblkhd)
         33174 MiB available memory on the node where the printing process lives
     GPU memory used/free/total (MiB): 3706 / 12574 / 16280
------------------
     c_bands:  2 eigenvalues not converged
     c_bands:  1 eigenvalues not converged
     c_bands:  3 eigenvalues not converged
     c_bands:  1 eigenvalues not converged
     c_bands:  2 eigenvalues not converged
     ethr =  9.26E-08,  avg # of iterations =  8.0

     negative rho (up, down):  0.000E+00 6.530E-06

     total cpu time spent up to now is      265.2 secs

     total energy              =    -939.06797211 Ry
     estimated scf accuracy    <       0.04143715 Ry

     total magnetization       =    10.00 Bohr mag/cell
     absolute magnetization    =    12.90 Bohr mag/cell
[tb_dev] Currently allocated     1.54E+01 Mbytes, locked:    0 /  11
[tb_pin] Currently allocated     0.00E+00 Mbytes, locked:    0 /   0

     iteration # 77     ecut=    60.00 Ry     beta= 0.20
     Davidson diagonalization with overlap

---- Real-time Memory Report at c_bands before calling an iterative solver
          2750 MiB given to the printing process from OS
          1796 MiB allocation reported by mallinfo(arena+hblkhd)
         33169 MiB available memory on the node where the printing process lives
     GPU memory used/free/total (MiB): 3706 / 12574 / 16280
------------------
     c_bands:  4 eigenvalues not converged
     c_bands:  2 eigenvalues not converged
     c_bands:  2 eigenvalues not converged
     c_bands:  4 eigenvalues not converged
     c_bands:  5 eigenvalues not converged
     c_bands:  4 eigenvalues not converged
     c_bands:  1 eigenvalues not converged
     c_bands:  5 eigenvalues not converged
     c_bands:  2 eigenvalues not converged
     c_bands:  3 eigenvalues not converged
     c_bands:  2 eigenvalues not converged
     c_bands:  4 eigenvalues not converged
     c_bands:  2 eigenvalues not converged
     c_bands:  3 eigenvalues not converged
     c_bands:  2 eigenvalues not converged
     c_bands:  1 eigenvalues not converged
     ethr =  9.26E-08,  avg # of iterations = 12.9

     negative rho (up, down):  0.000E+00 4.874E-06

     total cpu time spent up to now is      272.3 secs

     total energy              =    -939.06848653 Ry
     estimated scf accuracy    <       0.00290489 Ry

     total magnetization       =    10.00 Bohr mag/cell
     absolute magnetization    =    13.46 Bohr mag/cell
[tb_dev] Currently allocated     1.54E+01 Mbytes, locked:    0 /  11
[tb_pin] Currently allocated     0.00E+00 Mbytes, locked:    0 /   0

     iteration # 78     ecut=    60.00 Ry     beta= 0.20
     Davidson diagonalization with overlap

---- Real-time Memory Report at c_bands before calling an iterative solver
          2753 MiB given to the printing process from OS
          1800 MiB allocation reported by mallinfo(arena+hblkhd)
         33166 MiB available memory on the node where the printing process lives
     GPU memory used/free/total (MiB): 3706 / 12574 / 16280
------------------
     c_bands:  4 eigenvalues not converged
     c_bands:  3 eigenvalues not converged
     c_bands:  3 eigenvalues not converged
     c_bands:  4 eigenvalues not converged
     c_bands:  3 eigenvalues not converged
     c_bands:  5 eigenvalues not converged
     c_bands:  4 eigenvalues not converged
     c_bands:  5 eigenvalues not converged
     c_bands:  5 eigenvalues not converged
     c_bands:  5 eigenvalues not converged
     c_bands:  1 eigenvalues not converged
     c_bands:  5 eigenvalues not converged
     c_bands:  5 eigenvalues not converged
     c_bands:  1 eigenvalues not converged
     c_bands:  5 eigenvalues not converged
     ethr =  9.26E-08,  avg # of iterations = 12.0

     negative rho (up, down):  0.000E+00 5.040E-06

     total cpu time spent up to now is      278.9 secs

     total energy              =    -939.06892526 Ry
     estimated scf accuracy    <       0.00195125 Ry

     total magnetization       =    10.00 Bohr mag/cell
     absolute magnetization    =    13.84 Bohr mag/cell
[tb_dev] Currently allocated     1.54E+01 Mbytes, locked:    0 /  11
[tb_pin] Currently allocated     0.00E+00 Mbytes, locked:    0 /   0

     iteration # 79     ecut=    60.00 Ry     beta= 0.20
     Davidson diagonalization with overlap

---- Real-time Memory Report at c_bands before calling an iterative solver
          2758 MiB given to the printing process from OS
          1804 MiB allocation reported by mallinfo(arena+hblkhd)
         33163 MiB available memory on the node where the printing process lives
     GPU memory used/free/total (MiB): 3706 / 12574 / 16280
------------------
     ethr =  9.26E-08,  avg # of iterations =  4.4

     negative rho (up, down):  0.000E+00 6.171E-06

     total cpu time spent up to now is      282.5 secs

     total energy              =    -939.06869111 Ry
     estimated scf accuracy    <       0.00253077 Ry

     total magnetization       =    10.00 Bohr mag/cell
     absolute magnetization    =    13.88 Bohr mag/cell
[tb_dev] Currently allocated     1.54E+01 Mbytes, locked:    0 /  11
[tb_pin] Currently allocated     0.00E+00 Mbytes, locked:    0 /   0

     iteration # 80     ecut=    60.00 Ry     beta= 0.20
     Davidson diagonalization with overlap

---- Real-time Memory Report at c_bands before calling an iterative solver
          2762 MiB given to the printing process from OS
          1808 MiB allocation reported by mallinfo(arena+hblkhd)
         33159 MiB available memory on the node where the printing process lives
     GPU memory used/free/total (MiB): 3706 / 12574 / 16280
------------------
     c_bands:  1 eigenvalues not converged
     c_bands:  4 eigenvalues not converged
     c_bands:  3 eigenvalues not converged
     c_bands:  3 eigenvalues not converged
     c_bands:  3 eigenvalues not converged
     c_bands:  5 eigenvalues not converged
     c_bands:  4 eigenvalues not converged
     c_bands:  2 eigenvalues not converged
     c_bands:  3 eigenvalues not converged
     c_bands:  5 eigenvalues not converged
     c_bands:  1 eigenvalues not converged
     c_bands:  3 eigenvalues not converged
     ethr =  9.26E-08,  avg # of iterations = 11.1

     negative rho (up, down):  0.000E+00 6.233E-06

     total cpu time spent up to now is      288.8 secs

     total energy              =    -939.06890366 Ry
     estimated scf accuracy    <       0.00041655 Ry

     total magnetization       =    10.00 Bohr mag/cell
     absolute magnetization    =    13.61 Bohr mag/cell

     End of self-consistent calculation

     convergence NOT achieved after  80 iterations: stopping

     Writing config to output data dir ./out/aiida.save/
 
     init_run     :     19.19s CPU      3.30s WALL (       1 calls)
     electrons    :    721.61s CPU    284.90s WALL (       1 calls)

     Called by init_run:
     wfcinit      :      0.08s CPU      0.08s WALL (       1 calls)
                                        0.08s GPU  (       1 calls)
     potinit      :      5.97s CPU      0.85s WALL (       1 calls)
     hinit0       :      7.52s CPU      1.34s WALL (       1 calls)

     Called by electrons:
     c_bands      :    246.92s CPU    196.21s WALL (      80 calls)
     sum_band     :     46.54s CPU     48.32s WALL (      80 calls)
     v_of_rho     :     76.66s CPU      7.01s WALL (      81 calls)
     v_h          :     11.27s CPU      0.99s WALL (      81 calls)
     v_xc         :     65.39s CPU      6.02s WALL (      81 calls)
     newd         :     93.67s CPU      8.90s WALL (      81 calls)
                                        8.90s GPU  (      81 calls)
     PAW_pot      :    147.49s CPU     13.70s WALL (      81 calls)
     mix_rho      :     81.42s CPU      8.12s WALL (      80 calls)

     Called by c_bands:
     init_us_2    :      9.30s CPU      8.59s WALL (    6400 calls)
     init_us_2:gp :      9.14s CPU      8.47s WALL (    6400 calls)
     cegterg      :    212.22s CPU    170.17s WALL (    3212 calls)

     Called by sum_band:
     sum_band:wei :      0.12s CPU      0.12s WALL (      80 calls)
                                        0.12s GPU  (      80 calls)
     sum_band:loo :     35.08s CPU     36.76s WALL (      80 calls)
                                       36.76s GPU  (      80 calls)
     sum_band:buf :      8.43s CPU      8.64s WALL (    3200 calls)
                                        8.62s GPU  (    3200 calls)
     sum_band:ini :      3.25s CPU      3.72s WALL (    3200 calls)
                                        3.70s GPU  (    3200 calls)
     sum_band:cal :      0.10s CPU      1.93s WALL (    3200 calls)
                                        0.72s GPU  (    3200 calls)
     sum_band:bec :      0.77s CPU      0.83s WALL (    3200 calls)
                                        0.80s GPU  (    3200 calls)
     addusdens    :      6.60s CPU      6.68s WALL (      80 calls)
                                        6.68s GPU  (      80 calls)
     addusd:skk   :      0.04s CPU      0.04s WALL (     240 calls)
                                        0.04s GPU  (     240 calls)

     Called by *egterg:
     cdiaghg      :     36.62s CPU     33.95s WALL (   13289 calls)
                                       33.85s GPU  (   13289 calls)
     cegterg:over :      3.99s CPU      3.54s WALL (   10117 calls)
     cegterg:upda :      4.53s CPU      3.74s WALL (   10117 calls)
     cegterg:last :      1.40s CPU      1.32s WALL (    5379 calls)
     h_psi        :    153.62s CPU    118.11s WALL (   13329 calls)
                                      117.93s GPU  (   13329 calls)
     s_psi        :      2.26s CPU      3.64s WALL (   13329 calls)
                                        3.29s GPU  (   13329 calls)
     g_psi        :      0.10s CPU      0.48s WALL (   10117 calls)
                                        0.41s GPU  (   10117 calls)

     Called by h_psi:
     h_psi:calbec :      0.61s CPU      3.03s WALL (   13329 calls)
                                        2.94s GPU  (   13329 calls)
     vloc_psi     :    141.15s CPU    109.11s WALL (   13329 calls)
                                      109.03s GPU  (   13329 calls)
     add_vuspsi   :      3.75s CPU      4.63s WALL (   13329 calls)
                                        4.54s GPU  (   13329 calls)

     General routines
     calbec       :      0.51s CPU      0.43s WALL (   16529 calls)
     fft          :      3.94s CPU      0.92s WALL (    2023 calls)
                                        0.70s GPU  (    1861 calls)
     ffts         :      0.30s CPU      0.11s WALL (     322 calls)
                                        0.04s GPU  (     160 calls)
     fftw         :      2.17s CPU    106.24s WALL (   47232 calls)
                                      105.85s GPU  (   47232 calls)
     interpolate  :     12.01s CPU      1.05s WALL (     162 calls)
     davcio       :      0.08s CPU      0.87s WALL (      98 calls)
 
     Parallel routines

     PAW routines
     PAW_pot      :    147.49s CPU     13.70s WALL (      81 calls)
     PAW_symme    :      0.18s CPU      0.03s WALL (     160 calls)
 
     PWSCF        :  12m23.40s CPU   4m49.53s WALL

 
   This run was terminated on:  20:56:39  23Oct2023            

=------------------------------------------------------------------------------=
   JOB DONE.
=------------------------------------------------------------------------------=
