
     Program PWSCF v.7.2 starts on 23Oct2023 at 17:44: 1 

     This program is part of the open-source Quantum ESPRESSO suite
     for quantum simulation of materials; please cite
         "P. Giannozzi et al., J. Phys.:Condens. Matter 21 395502 (2009);
         "P. Giannozzi et al., J. Phys.:Condens. Matter 29 465901 (2017);
         "P. Giannozzi et al., J. Chem. Phys. 152 154105 (2020);
          URL http://www.quantum-espresso.org", 
     in publications or presentations arising from this work. More details at
     http://www.quantum-espresso.org/quote

     Parallel version (MPI & OpenMP), running on      12 processor cores
     Number of MPI processes:                 1
     Threads/MPI process:                    12

     MPI processes distributed on     1 nodes
     60437 MiB available memory on the printing compute node when the environment starts
 
     Reading input from aiida.in

     Current dimensions of program PWSCF are:
     Max number of different atomic species (ntypx) = 10
     Max number of k-points (npk) =  40000
     Max angular momentum in pseudopotentials (lmaxx) =  4
     file Cu.paw.z_11.ld1.psl.v1.0.0-low.upf: wavefunction(s)  4S 3D renormalized
     Message from routine setup:
     using ibrav=0 with symmetry is DISCOURAGED, use correct ibrav instead
 
     Subspace diagonalization in iterative solution of the eigenvalue problem:
     a serial algorithm will be used

 
     G-vector sticks info
     --------------------
     sticks:   dense  smooth     PW     G-vecs:    dense   smooth      PW
     Sum        8373    4177   1181               693373   245061   37237
 
     Using Slab Decomposition
 


     bravais-lattice index     =            0
     lattice parameter (alat)  =      16.4444  a.u.
     unit-cell volume          =    2124.7373 (a.u.)^3
     number of atoms/cell      =            2
     number of atomic types    =            1
     number of electrons       =        22.00
     number of Kohn-Sham states=           15
     kinetic-energy cutoff     =      90.0000  Ry
     charge density cutoff     =     720.0000  Ry
     scf convergence threshold =      4.0E-10
     mixing beta               =       0.4000
     number of iterations used =            8  plain     mixing
     Exchange-correlation= SLA  PW   PSX  PSC
                           (   1   4  10   8   0   0   0)

     GPU acceleration is ACTIVE.


     GPU used by master process:

        Device Number: 0
        Device name: Tesla P100-PCIE-16GB
        Compute capability : 60
        Ratio of single to double precision performance  : 2
        Memory Clock Rate (KHz): 715000
        Memory Bus Width (bits): 4096
        Peak Memory Bandwidth (GB/s): 732.16

     celldm(1)=  16.444418  celldm(2)=   0.000000  celldm(3)=   0.000000
     celldm(4)=   0.000000  celldm(5)=   0.000000  celldm(6)=   0.000000

     crystal axes: (cart. coord. in units of alat)
               a(1) = (   0.959548   0.281544   0.000000 )  
               a(2) = (  -0.959548   0.281544   0.000000 )  
               a(3) = (  -0.030881   0.000000   0.884314 )  

     reciprocal axes: (cart. coord. in units 2 pi/alat)
               b(1) = (  0.521079  1.775921  0.018196 )  
               b(2) = ( -0.521079  1.775921 -0.018196 )  
               b(3) = (  0.000000 -0.000000  1.130820 )  


     PseudoPot. # 1 for Cu read from file:
     ./pseudo/Cu.paw.z_11.ld1.psl.v1.0.0-low.upf
     MD5 check sum: e985f55843d4aeb8486834e0a057895d
     Pseudo is Projector augmented-wave + core cor, Zval = 11.0
     Generated using &quot;atomic&quot; code by A. Dal Corso  v.6.3MaX
     Shape of augmentation charge: PSQ
     Using radial grid of 1199 points,  6 beta functions with: 
                l(1) =   0
                l(2) =   0
                l(3) =   1
                l(4) =   1
                l(5) =   2
                l(6) =   2
     Q(r) pseudized with 0 coefficients 


     atomic species   valence    mass     pseudopotential
        Cu            11.00    63.54600     Cu( 1.00)

     Starting magnetic structure 
     atomic species   magnetization
        Cu           0.100

      4 Sym. Ops., with inversion, found


                                    s                        frac. trans.

      isym =  1     identity                                     

 cryst.   s( 1) = (     1          0          0      )
                  (     0          1          0      )
                  (     0          0          1      )

 cart.    s( 1) = (  1.0000000 -0.0000000 -0.0000000 )
                  ( -0.0000000  1.0000000  0.0000000 )
                  (  0.0000000  0.0000000  1.0000000 )


      isym =  2     180 deg rotation - cart. axis [0,1,0]        

 cryst.   s( 2) = (     0          1          0      )
                  (     1          0          0      )
                  (     0          0         -1      )

 cart.    s( 2) = ( -1.0000000 -0.0000000  0.0000000 )
                  (  0.0000000  1.0000000 -0.0000000 )
                  (  0.0000000  0.0000000 -1.0000000 )


      isym =  3     inversion                                    

 cryst.   s( 3) = (    -1          0          0      )
                  (     0         -1          0      )
                  (     0          0         -1      )

 cart.    s( 3) = ( -1.0000000  0.0000000  0.0000000 )
                  (  0.0000000 -1.0000000 -0.0000000 )
                  (  0.0000000  0.0000000 -1.0000000 )


      isym =  4     inv. 180 deg rotation - cart. axis [0,1,0]   

 cryst.   s( 4) = (     0         -1          0      )
                  (    -1          0          0      )
                  (     0          0          1      )

 cart.    s( 4) = (  1.0000000  0.0000000 -0.0000000 )
                  ( -0.0000000 -1.0000000  0.0000000 )
                  (  0.0000000  0.0000000  1.0000000 )


   Cartesian axes

     site n.     atom                  positions (alat units)
         1           Cu  tau(   1) = (   0.7051696   0.2815441   0.6897648  )
         2           Cu  tau(   2) = (   0.2234978  -0.0000000   0.1945491  )

   Crystallographic axes

     site n.     atom                  positions (cryst. coord.)
         1           Cu  tau(   1) = (  0.8800000  0.1200000  0.7800000  )
         2           Cu  tau(   2) = (  0.1200000 -0.1200000  0.2200000  )

     number of k points=   140  Marzari-Vanderbilt smearing, width (Ry)=  0.0100
                       cart. coord. in units 2pi/alat
        k(    1) = (   0.0000000   0.0000000   0.0000000), wk =   0.0020576
        k(    2) = (   0.0000000   0.0000000   0.1884700), wk =   0.0041152
        k(    3) = (   0.0000000   0.0000000   0.3769401), wk =   0.0041152
        k(    4) = (   0.0000000   0.0000000  -0.5654101), wk =   0.0020576
        k(    5) = (  -0.0578976   0.1973245  -0.0020218), wk =   0.0082305
        k(    6) = (  -0.0578976   0.1973245   0.1864482), wk =   0.0082305
        k(    7) = (  -0.0578976   0.1973245   0.3749182), wk =   0.0082305
        k(    8) = (  -0.0578976   0.1973245  -0.5674319), wk =   0.0082305
        k(    9) = (  -0.0578976   0.1973245  -0.3789619), wk =   0.0082305
        k(   10) = (  -0.0578976   0.1973245  -0.1904919), wk =   0.0082305
        k(   11) = (  -0.1157952   0.3946490  -0.0040437), wk =   0.0082305
        k(   12) = (  -0.1157952   0.3946490   0.1844264), wk =   0.0082305
        k(   13) = (  -0.1157952   0.3946490   0.3728964), wk =   0.0082305
        k(   14) = (  -0.1157952   0.3946490  -0.5694538), wk =   0.0082305
        k(   15) = (  -0.1157952   0.3946490  -0.3809837), wk =   0.0082305
        k(   16) = (  -0.1157952   0.3946490  -0.1925137), wk =   0.0082305
        k(   17) = (  -0.1736928   0.5919736  -0.0060655), wk =   0.0082305
        k(   18) = (  -0.1736928   0.5919736   0.1824045), wk =   0.0082305
        k(   19) = (  -0.1736928   0.5919736   0.3708746), wk =   0.0082305
        k(   20) = (  -0.1736928   0.5919736  -0.5714756), wk =   0.0082305
        k(   21) = (  -0.1736928   0.5919736  -0.3830056), wk =   0.0082305
        k(   22) = (  -0.1736928   0.5919736  -0.1945355), wk =   0.0082305
        k(   23) = (  -0.2315905   0.7892981  -0.0080873), wk =   0.0082305
        k(   24) = (  -0.2315905   0.7892981   0.1803827), wk =   0.0082305
        k(   25) = (  -0.2315905   0.7892981   0.3688527), wk =   0.0082305
        k(   26) = (  -0.2315905   0.7892981  -0.5734974), wk =   0.0082305
        k(   27) = (  -0.2315905   0.7892981  -0.3850274), wk =   0.0082305
        k(   28) = (  -0.2315905   0.7892981  -0.1965573), wk =   0.0082305
        k(   29) = (   0.0000000   0.3946490  -0.0000000), wk =   0.0041152
        k(   30) = (   0.0000000   0.3946490   0.1884700), wk =   0.0082305
        k(   31) = (   0.0000000   0.3946490   0.3769401), wk =   0.0082305
        k(   32) = (   0.0000000   0.3946490  -0.5654101), wk =   0.0041152
        k(   33) = (  -0.0578976   0.5919736  -0.0020218), wk =   0.0082305
        k(   34) = (  -0.0578976   0.5919736   0.1864482), wk =   0.0082305
        k(   35) = (  -0.0578976   0.5919736   0.3749182), wk =   0.0082305
        k(   36) = (  -0.0578976   0.5919736  -0.5674319), wk =   0.0082305
        k(   37) = (  -0.0578976   0.5919736  -0.3789619), wk =   0.0082305
        k(   38) = (  -0.0578976   0.5919736  -0.1904919), wk =   0.0082305
        k(   39) = (  -0.1157952   0.7892981  -0.0040437), wk =   0.0082305
        k(   40) = (  -0.1157952   0.7892981   0.1844264), wk =   0.0082305
        k(   41) = (  -0.1157952   0.7892981   0.3728964), wk =   0.0082305
        k(   42) = (  -0.1157952   0.7892981  -0.5694538), wk =   0.0082305
        k(   43) = (  -0.1157952   0.7892981  -0.3809837), wk =   0.0082305
        k(   44) = (  -0.1157952   0.7892981  -0.1925137), wk =   0.0082305
        k(   45) = (  -0.1736928   0.9866226  -0.0060655), wk =   0.0082305
        k(   46) = (  -0.1736928   0.9866226   0.1824045), wk =   0.0082305
        k(   47) = (  -0.1736928   0.9866226   0.3708746), wk =   0.0082305
        k(   48) = (  -0.1736928   0.9866226  -0.5714756), wk =   0.0082305
        k(   49) = (  -0.1736928   0.9866226  -0.3830056), wk =   0.0082305
        k(   50) = (  -0.1736928   0.9866226  -0.1945355), wk =   0.0082305
        k(   51) = (   0.2894881  -0.5919736   0.0101091), wk =   0.0082305
        k(   52) = (   0.2894881  -0.5919736   0.1985792), wk =   0.0082305
        k(   53) = (   0.2894881  -0.5919736   0.3870492), wk =   0.0082305
        k(   54) = (   0.2894881  -0.5919736  -0.5553010), wk =   0.0082305
        k(   55) = (   0.2894881  -0.5919736  -0.3668309), wk =   0.0082305
        k(   56) = (   0.2894881  -0.5919736  -0.1783609), wk =   0.0082305
        k(   57) = (   0.2315905  -0.3946490   0.0080873), wk =   0.0082305
        k(   58) = (   0.2315905  -0.3946490   0.1965573), wk =   0.0082305
        k(   59) = (   0.2315905  -0.3946490   0.3850274), wk =   0.0082305
        k(   60) = (   0.2315905  -0.3946490  -0.5573228), wk =   0.0082305
        k(   61) = (   0.2315905  -0.3946490  -0.3688527), wk =   0.0082305
        k(   62) = (   0.2315905  -0.3946490  -0.1803827), wk =   0.0082305
        k(   63) = (   0.1736928  -0.1973245   0.0060655), wk =   0.0082305
        k(   64) = (   0.1736928  -0.1973245   0.1945355), wk =   0.0082305
        k(   65) = (   0.1736928  -0.1973245   0.3830056), wk =   0.0082305
        k(   66) = (   0.1736928  -0.1973245  -0.5593446), wk =   0.0082305
        k(   67) = (   0.1736928  -0.1973245  -0.3708746), wk =   0.0082305
        k(   68) = (   0.1736928  -0.1973245  -0.1824045), wk =   0.0082305
        k(   69) = (   0.1157952  -0.0000000   0.0040437), wk =   0.0041152
        k(   70) = (   0.1157952  -0.0000000   0.1925137), wk =   0.0041152
        k(   71) = (   0.1157952  -0.0000000   0.3809837), wk =   0.0041152
        k(   72) = (   0.1157952  -0.0000000  -0.5613664), wk =   0.0041152
        k(   73) = (   0.1157952  -0.0000000  -0.3728964), wk =   0.0041152
        k(   74) = (   0.1157952  -0.0000000  -0.1844264), wk =   0.0041152
        k(   75) = (   0.0000000   0.7892981  -0.0000000), wk =   0.0041152
        k(   76) = (   0.0000000   0.7892981   0.1884700), wk =   0.0082305
        k(   77) = (   0.0000000   0.7892981   0.3769401), wk =   0.0082305
        k(   78) = (   0.0000000   0.7892981  -0.5654101), wk =   0.0041152
        k(   79) = (  -0.0578976   0.9866226  -0.0020218), wk =   0.0082305
        k(   80) = (  -0.0578976   0.9866226   0.1864482), wk =   0.0082305
        k(   81) = (  -0.0578976   0.9866226   0.3749182), wk =   0.0082305
        k(   82) = (  -0.0578976   0.9866226  -0.5674319), wk =   0.0082305
        k(   83) = (  -0.0578976   0.9866226  -0.3789619), wk =   0.0082305
        k(   84) = (  -0.0578976   0.9866226  -0.1904919), wk =   0.0082305
        k(   85) = (  -0.1157952   1.1839471  -0.0040437), wk =   0.0082305
        k(   86) = (  -0.1157952   1.1839471   0.1844264), wk =   0.0082305
        k(   87) = (  -0.1157952   1.1839471   0.3728964), wk =   0.0082305
        k(   88) = (  -0.1157952   1.1839471  -0.5694538), wk =   0.0082305
        k(   89) = (  -0.1157952   1.1839471  -0.3809837), wk =   0.0082305
        k(   90) = (  -0.1157952   1.1839471  -0.1925137), wk =   0.0082305
        k(   91) = (   0.3473857  -0.3946490   0.0121310), wk =   0.0082305
        k(   92) = (   0.3473857  -0.3946490   0.2006010), wk =   0.0082305
        k(   93) = (   0.3473857  -0.3946490   0.3890710), wk =   0.0082305
        k(   94) = (   0.3473857  -0.3946490  -0.5532791), wk =   0.0082305
        k(   95) = (   0.3473857  -0.3946490  -0.3648091), wk =   0.0082305
        k(   96) = (   0.3473857  -0.3946490  -0.1763391), wk =   0.0082305
        k(   97) = (   0.2894881  -0.1973245   0.0101091), wk =   0.0082305
        k(   98) = (   0.2894881  -0.1973245   0.1985792), wk =   0.0082305
        k(   99) = (   0.2894881  -0.1973245   0.3870492), wk =   0.0082305
        k(  100) = (   0.2894881  -0.1973245  -0.5553010), wk =   0.0082305
        k(  101) = (   0.2894881  -0.1973245  -0.3668309), wk =   0.0082305
        k(  102) = (   0.2894881  -0.1973245  -0.1783609), wk =   0.0082305
        k(  103) = (   0.2315905   0.0000000   0.0080873), wk =   0.0041152
        k(  104) = (   0.2315905   0.0000000   0.1965573), wk =   0.0041152
        k(  105) = (   0.2315905   0.0000000   0.3850274), wk =   0.0041152
        k(  106) = (   0.2315905   0.0000000  -0.5573228), wk =   0.0041152
        k(  107) = (   0.2315905   0.0000000  -0.3688527), wk =   0.0041152
        k(  108) = (   0.2315905   0.0000000  -0.1803827), wk =   0.0041152
        k(  109) = (   0.0000000   1.1839471  -0.0000000), wk =   0.0041152
        k(  110) = (   0.0000000   1.1839471   0.1884700), wk =   0.0082305
        k(  111) = (   0.0000000   1.1839471   0.3769401), wk =   0.0082305
        k(  112) = (   0.0000000   1.1839471  -0.5654101), wk =   0.0041152
        k(  113) = (  -0.0578976   1.3812716  -0.0020218), wk =   0.0082305
        k(  114) = (  -0.0578976   1.3812716   0.1864482), wk =   0.0082305
        k(  115) = (  -0.0578976   1.3812716   0.3749182), wk =   0.0082305
        k(  116) = (  -0.0578976   1.3812716  -0.5674319), wk =   0.0082305
        k(  117) = (  -0.0578976   1.3812716  -0.3789619), wk =   0.0082305
        k(  118) = (  -0.0578976   1.3812716  -0.1904919), wk =   0.0082305
        k(  119) = (   0.4052833  -0.1973245   0.0141528), wk =   0.0082305
        k(  120) = (   0.4052833  -0.1973245   0.2026228), wk =   0.0082305
        k(  121) = (   0.4052833  -0.1973245   0.3910929), wk =   0.0082305
        k(  122) = (   0.4052833  -0.1973245  -0.5512573), wk =   0.0082305
        k(  123) = (   0.4052833  -0.1973245  -0.3627873), wk =   0.0082305
        k(  124) = (   0.4052833  -0.1973245  -0.1743172), wk =   0.0082305
        k(  125) = (   0.3473857  -0.0000000   0.0121310), wk =   0.0041152
        k(  126) = (   0.3473857  -0.0000000   0.2006010), wk =   0.0041152
        k(  127) = (   0.3473857  -0.0000000   0.3890710), wk =   0.0041152
        k(  128) = (   0.3473857  -0.0000000  -0.5532791), wk =   0.0041152
        k(  129) = (   0.3473857  -0.0000000  -0.3648091), wk =   0.0041152
        k(  130) = (   0.3473857  -0.0000000  -0.1763391), wk =   0.0041152
        k(  131) = (   0.0000000   1.5785961  -0.0000000), wk =   0.0041152
        k(  132) = (   0.0000000   1.5785961   0.1884700), wk =   0.0082305
        k(  133) = (   0.0000000   1.5785961   0.3769401), wk =   0.0082305
        k(  134) = (   0.0000000   1.5785961  -0.5654101), wk =   0.0041152
        k(  135) = (   0.4631809   0.0000000   0.0161746), wk =   0.0041152
        k(  136) = (   0.4631809   0.0000000   0.2046447), wk =   0.0041152
        k(  137) = (   0.4631809   0.0000000   0.3931147), wk =   0.0041152
        k(  138) = (   0.4631809   0.0000000  -0.5492355), wk =   0.0041152
        k(  139) = (   0.4631809   0.0000000  -0.3607654), wk =   0.0041152
        k(  140) = (   0.4631809   0.0000000  -0.1722954), wk =   0.0041152

                       cryst. coord.
        k(    1) = (   0.0000000   0.0000000   0.0000000), wk =   0.0020576
        k(    2) = (   0.0000000   0.0000000   0.1666667), wk =   0.0041152
        k(    3) = (   0.0000000   0.0000000   0.3333333), wk =   0.0041152
        k(    4) = (   0.0000000   0.0000000  -0.5000000), wk =   0.0020576
        k(    5) = (  -0.0000000   0.1111111   0.0000000), wk =   0.0082305
        k(    6) = (  -0.0000000   0.1111111   0.1666667), wk =   0.0082305
        k(    7) = (  -0.0000000   0.1111111   0.3333333), wk =   0.0082305
        k(    8) = (  -0.0000000   0.1111111  -0.5000000), wk =   0.0082305
        k(    9) = (  -0.0000000   0.1111111  -0.3333333), wk =   0.0082305
        k(   10) = (  -0.0000000   0.1111111  -0.1666667), wk =   0.0082305
        k(   11) = (  -0.0000000   0.2222222   0.0000000), wk =   0.0082305
        k(   12) = (  -0.0000000   0.2222222   0.1666667), wk =   0.0082305
        k(   13) = (  -0.0000000   0.2222222   0.3333333), wk =   0.0082305
        k(   14) = (  -0.0000000   0.2222222  -0.5000000), wk =   0.0082305
        k(   15) = (  -0.0000000   0.2222222  -0.3333333), wk =   0.0082305
        k(   16) = (  -0.0000000   0.2222222  -0.1666667), wk =   0.0082305
        k(   17) = (   0.0000000   0.3333333   0.0000000), wk =   0.0082305
        k(   18) = (   0.0000000   0.3333333   0.1666667), wk =   0.0082305
        k(   19) = (   0.0000000   0.3333333   0.3333333), wk =   0.0082305
        k(   20) = (   0.0000000   0.3333333  -0.5000000), wk =   0.0082305
        k(   21) = (   0.0000000   0.3333333  -0.3333333), wk =   0.0082305
        k(   22) = (   0.0000000   0.3333333  -0.1666667), wk =   0.0082305
        k(   23) = (  -0.0000000   0.4444444   0.0000000), wk =   0.0082305
        k(   24) = (  -0.0000000   0.4444444   0.1666667), wk =   0.0082305
        k(   25) = (  -0.0000000   0.4444444   0.3333333), wk =   0.0082305
        k(   26) = (  -0.0000000   0.4444444  -0.5000000), wk =   0.0082305
        k(   27) = (  -0.0000000   0.4444444  -0.3333333), wk =   0.0082305
        k(   28) = (  -0.0000000   0.4444444  -0.1666667), wk =   0.0082305
        k(   29) = (   0.1111111   0.1111111  -0.0000000), wk =   0.0041152
        k(   30) = (   0.1111111   0.1111111   0.1666667), wk =   0.0082305
        k(   31) = (   0.1111111   0.1111111   0.3333333), wk =   0.0082305
        k(   32) = (   0.1111111   0.1111111  -0.5000000), wk =   0.0041152
        k(   33) = (   0.1111111   0.2222222   0.0000000), wk =   0.0082305
        k(   34) = (   0.1111111   0.2222222   0.1666667), wk =   0.0082305
        k(   35) = (   0.1111111   0.2222222   0.3333333), wk =   0.0082305
        k(   36) = (   0.1111111   0.2222222  -0.5000000), wk =   0.0082305
        k(   37) = (   0.1111111   0.2222222  -0.3333333), wk =   0.0082305
        k(   38) = (   0.1111111   0.2222222  -0.1666667), wk =   0.0082305
        k(   39) = (   0.1111111   0.3333333   0.0000000), wk =   0.0082305
        k(   40) = (   0.1111111   0.3333333   0.1666667), wk =   0.0082305
        k(   41) = (   0.1111111   0.3333333   0.3333333), wk =   0.0082305
        k(   42) = (   0.1111111   0.3333333  -0.5000000), wk =   0.0082305
        k(   43) = (   0.1111111   0.3333333  -0.3333333), wk =   0.0082305
        k(   44) = (   0.1111111   0.3333333  -0.1666667), wk =   0.0082305
        k(   45) = (   0.1111111   0.4444444   0.0000000), wk =   0.0082305
        k(   46) = (   0.1111111   0.4444444   0.1666667), wk =   0.0082305
        k(   47) = (   0.1111111   0.4444444   0.3333333), wk =   0.0082305
        k(   48) = (   0.1111111   0.4444444  -0.5000000), wk =   0.0082305
        k(   49) = (   0.1111111   0.4444444  -0.3333333), wk =   0.0082305
        k(   50) = (   0.1111111   0.4444444  -0.1666667), wk =   0.0082305
        k(   51) = (   0.1111111  -0.4444444  -0.0000000), wk =   0.0082305
        k(   52) = (   0.1111111  -0.4444444   0.1666667), wk =   0.0082305
        k(   53) = (   0.1111111  -0.4444444   0.3333333), wk =   0.0082305
        k(   54) = (   0.1111111  -0.4444444  -0.5000000), wk =   0.0082305
        k(   55) = (   0.1111111  -0.4444444  -0.3333333), wk =   0.0082305
        k(   56) = (   0.1111111  -0.4444444  -0.1666667), wk =   0.0082305
        k(   57) = (   0.1111111  -0.3333333  -0.0000000), wk =   0.0082305
        k(   58) = (   0.1111111  -0.3333333   0.1666667), wk =   0.0082305
        k(   59) = (   0.1111111  -0.3333333   0.3333333), wk =   0.0082305
        k(   60) = (   0.1111111  -0.3333333  -0.5000000), wk =   0.0082305
        k(   61) = (   0.1111111  -0.3333333  -0.3333333), wk =   0.0082305
        k(   62) = (   0.1111111  -0.3333333  -0.1666667), wk =   0.0082305
        k(   63) = (   0.1111111  -0.2222222  -0.0000000), wk =   0.0082305
        k(   64) = (   0.1111111  -0.2222222   0.1666667), wk =   0.0082305
        k(   65) = (   0.1111111  -0.2222222   0.3333333), wk =   0.0082305
        k(   66) = (   0.1111111  -0.2222222  -0.5000000), wk =   0.0082305
        k(   67) = (   0.1111111  -0.2222222  -0.3333333), wk =   0.0082305
        k(   68) = (   0.1111111  -0.2222222  -0.1666667), wk =   0.0082305
        k(   69) = (   0.1111111  -0.1111111  -0.0000000), wk =   0.0041152
        k(   70) = (   0.1111111  -0.1111111   0.1666667), wk =   0.0041152
        k(   71) = (   0.1111111  -0.1111111   0.3333333), wk =   0.0041152
        k(   72) = (   0.1111111  -0.1111111  -0.5000000), wk =   0.0041152
        k(   73) = (   0.1111111  -0.1111111  -0.3333333), wk =   0.0041152
        k(   74) = (   0.1111111  -0.1111111  -0.1666667), wk =   0.0041152
        k(   75) = (   0.2222222   0.2222222  -0.0000000), wk =   0.0041152
        k(   76) = (   0.2222222   0.2222222   0.1666667), wk =   0.0082305
        k(   77) = (   0.2222222   0.2222222   0.3333333), wk =   0.0082305
        k(   78) = (   0.2222222   0.2222222  -0.5000000), wk =   0.0041152
        k(   79) = (   0.2222222   0.3333333  -0.0000000), wk =   0.0082305
        k(   80) = (   0.2222222   0.3333333   0.1666667), wk =   0.0082305
        k(   81) = (   0.2222222   0.3333333   0.3333333), wk =   0.0082305
        k(   82) = (   0.2222222   0.3333333  -0.5000000), wk =   0.0082305
        k(   83) = (   0.2222222   0.3333333  -0.3333333), wk =   0.0082305
        k(   84) = (   0.2222222   0.3333333  -0.1666667), wk =   0.0082305
        k(   85) = (   0.2222222   0.4444444   0.0000000), wk =   0.0082305
        k(   86) = (   0.2222222   0.4444444   0.1666667), wk =   0.0082305
        k(   87) = (   0.2222222   0.4444444   0.3333333), wk =   0.0082305
        k(   88) = (   0.2222222   0.4444444  -0.5000000), wk =   0.0082305
        k(   89) = (   0.2222222   0.4444444  -0.3333333), wk =   0.0082305
        k(   90) = (   0.2222222   0.4444444  -0.1666667), wk =   0.0082305
        k(   91) = (   0.2222222  -0.4444444  -0.0000000), wk =   0.0082305
        k(   92) = (   0.2222222  -0.4444444   0.1666667), wk =   0.0082305
        k(   93) = (   0.2222222  -0.4444444   0.3333333), wk =   0.0082305
        k(   94) = (   0.2222222  -0.4444444  -0.5000000), wk =   0.0082305
        k(   95) = (   0.2222222  -0.4444444  -0.3333333), wk =   0.0082305
        k(   96) = (   0.2222222  -0.4444444  -0.1666667), wk =   0.0082305
        k(   97) = (   0.2222222  -0.3333333  -0.0000000), wk =   0.0082305
        k(   98) = (   0.2222222  -0.3333333   0.1666667), wk =   0.0082305
        k(   99) = (   0.2222222  -0.3333333   0.3333333), wk =   0.0082305
        k(  100) = (   0.2222222  -0.3333333  -0.5000000), wk =   0.0082305
        k(  101) = (   0.2222222  -0.3333333  -0.3333333), wk =   0.0082305
        k(  102) = (   0.2222222  -0.3333333  -0.1666667), wk =   0.0082305
        k(  103) = (   0.2222222  -0.2222222  -0.0000000), wk =   0.0041152
        k(  104) = (   0.2222222  -0.2222222   0.1666667), wk =   0.0041152
        k(  105) = (   0.2222222  -0.2222222   0.3333333), wk =   0.0041152
        k(  106) = (   0.2222222  -0.2222222  -0.5000000), wk =   0.0041152
        k(  107) = (   0.2222222  -0.2222222  -0.3333333), wk =   0.0041152
        k(  108) = (   0.2222222  -0.2222222  -0.1666667), wk =   0.0041152
        k(  109) = (   0.3333333   0.3333333  -0.0000000), wk =   0.0041152
        k(  110) = (   0.3333333   0.3333333   0.1666667), wk =   0.0082305
        k(  111) = (   0.3333333   0.3333333   0.3333333), wk =   0.0082305
        k(  112) = (   0.3333333   0.3333333  -0.5000000), wk =   0.0041152
        k(  113) = (   0.3333333   0.4444444   0.0000000), wk =   0.0082305
        k(  114) = (   0.3333333   0.4444444   0.1666667), wk =   0.0082305
        k(  115) = (   0.3333333   0.4444444   0.3333333), wk =   0.0082305
        k(  116) = (   0.3333333   0.4444444  -0.5000000), wk =   0.0082305
        k(  117) = (   0.3333333   0.4444444  -0.3333333), wk =   0.0082305
        k(  118) = (   0.3333333   0.4444444  -0.1666667), wk =   0.0082305
        k(  119) = (   0.3333333  -0.4444444  -0.0000000), wk =   0.0082305
        k(  120) = (   0.3333333  -0.4444444   0.1666667), wk =   0.0082305
        k(  121) = (   0.3333333  -0.4444444   0.3333333), wk =   0.0082305
        k(  122) = (   0.3333333  -0.4444444  -0.5000000), wk =   0.0082305
        k(  123) = (   0.3333333  -0.4444444  -0.3333333), wk =   0.0082305
        k(  124) = (   0.3333333  -0.4444444  -0.1666667), wk =   0.0082305
        k(  125) = (   0.3333333  -0.3333333  -0.0000000), wk =   0.0041152
        k(  126) = (   0.3333333  -0.3333333   0.1666667), wk =   0.0041152
        k(  127) = (   0.3333333  -0.3333333   0.3333333), wk =   0.0041152
        k(  128) = (   0.3333333  -0.3333333  -0.5000000), wk =   0.0041152
        k(  129) = (   0.3333333  -0.3333333  -0.3333333), wk =   0.0041152
        k(  130) = (   0.3333333  -0.3333333  -0.1666667), wk =   0.0041152
        k(  131) = (   0.4444444   0.4444444  -0.0000000), wk =   0.0041152
        k(  132) = (   0.4444444   0.4444444   0.1666667), wk =   0.0082305
        k(  133) = (   0.4444444   0.4444444   0.3333333), wk =   0.0082305
        k(  134) = (   0.4444444   0.4444444  -0.5000000), wk =   0.0041152
        k(  135) = (   0.4444444  -0.4444444  -0.0000000), wk =   0.0041152
        k(  136) = (   0.4444444  -0.4444444   0.1666667), wk =   0.0041152
        k(  137) = (   0.4444444  -0.4444444   0.3333333), wk =   0.0041152
        k(  138) = (   0.4444444  -0.4444444  -0.5000000), wk =   0.0041152
        k(  139) = (   0.4444444  -0.4444444  -0.3333333), wk =   0.0041152
        k(  140) = (   0.4444444  -0.4444444  -0.1666667), wk =   0.0041152

     Dense  grid:   693373 G-vectors     FFT dimensions: ( 144, 144, 125)

     Smooth grid:   245061 G-vectors     FFT dimensions: ( 100, 100,  90)

     Dynamical RAM for                 wfc:       7.01 MB

     Dynamical RAM for     wfc (w. buffer):    1970.31 MB

     Dynamical RAM for           str. fact:      10.58 MB

     Dynamical RAM for           local pot:       0.00 MB

     Dynamical RAM for          nlocal pot:      16.83 MB

     Dynamical RAM for                qrad:       2.15 MB

     Dynamical RAM for          rho,v,vnew:     182.13 MB

     Dynamical RAM for               rhoin:      60.71 MB

     Dynamical RAM for            rho*nmix:     338.56 MB

     Dynamical RAM for           G-vectors:      41.54 MB

     Dynamical RAM for          h,s,v(r/c):       0.04 MB

     Dynamical RAM for          <psi|beta>:       0.01 MB

     Dynamical RAM for                 psi:      14.02 MB

     Dynamical RAM for                hpsi:      14.02 MB

     Dynamical RAM for                spsi:      14.02 MB

     Dynamical RAM for      wfcinit/wfcrot:      16.84 MB

     Dynamical RAM for           addusdens:    1999.63 MB

     Dynamical RAM for          addusforce:    2020.80 MB

     Dynamical RAM for         addusstress:    2142.46 MB

     Estimated static dynamical RAM per process >       2.37 GB

     Estimated max dynamical RAM per process >       4.79 GB
     Generating pointlists ...
     new r_m :   0.2323 (alat units)  3.8196 (a.u.) for type    1

     Initial potential from superposition of free atoms

     starting charge      21.9996, renormalised to      22.0000
     Starting wfcs are   18 randomized atomic wfcs
     Checking if some PAW data can be deallocated... 

     total cpu time spent up to now is       14.4 secs

     Self-consistent Calculation
[tb_dev] Currently allocated     2.97E+01 Mbytes, locked:    0 /  14
[tb_pin] Currently allocated     0.00E+00 Mbytes, locked:    0 /   0

     iteration #  1     ecut=    90.00 Ry     beta= 0.40
     Davidson diagonalization with overlap

---- Real-time Memory Report at c_bands before calling an iterative solver
          3444 MiB given to the printing process from OS
          -954 MiB allocation reported by mallinfo(arena+hblkhd)
         55933 MiB available memory on the node where the printing process lives
     GPU memory used/free/total (MiB): 3034 / 13246 / 16280
------------------
     ethr =  1.00E-02,  avg # of iterations =  2.0

     total cpu time spent up to now is       26.5 secs

     total energy              =    -420.15428532 Ry
     estimated scf accuracy    <       0.27244516 Ry

     total magnetization       =     1.08 Bohr mag/cell
     absolute magnetization    =     1.08 Bohr mag/cell
[tb_dev] Currently allocated     2.97E+01 Mbytes, locked:    0 /  12
[tb_pin] Currently allocated     0.00E+00 Mbytes, locked:    0 /   0

     iteration #  2     ecut=    90.00 Ry     beta= 0.40
     Davidson diagonalization with overlap

---- Real-time Memory Report at c_bands before calling an iterative solver
          3724 MiB given to the printing process from OS
          -781 MiB allocation reported by mallinfo(arena+hblkhd)
         55776 MiB available memory on the node where the printing process lives
     GPU memory used/free/total (MiB): 5134 / 11146 / 16280
------------------
     ethr =  1.24E-03,  avg # of iterations =  2.0

     total cpu time spent up to now is       39.7 secs

     total energy              =    -420.03628981 Ry
     estimated scf accuracy    <       1.11293790 Ry

     total magnetization       =     2.00 Bohr mag/cell
     absolute magnetization    =     2.01 Bohr mag/cell
[tb_dev] Currently allocated     2.97E+01 Mbytes, locked:    0 /  12
[tb_pin] Currently allocated     0.00E+00 Mbytes, locked:    0 /   0

     iteration #  3     ecut=    90.00 Ry     beta= 0.40
     Davidson diagonalization with overlap

---- Real-time Memory Report at c_bands before calling an iterative solver
          3880 MiB given to the printing process from OS
          -735 MiB allocation reported by mallinfo(arena+hblkhd)
         55748 MiB available memory on the node where the printing process lives
     GPU memory used/free/total (MiB): 5824 / 10456 / 16280
------------------
     ethr =  1.24E-03,  avg # of iterations =  2.0

     total cpu time spent up to now is       53.0 secs

     total energy              =    -420.22262548 Ry
     estimated scf accuracy    <       0.10362831 Ry

     total magnetization       =     1.15 Bohr mag/cell
     absolute magnetization    =     1.15 Bohr mag/cell
[tb_dev] Currently allocated     2.97E+01 Mbytes, locked:    0 /  12
[tb_pin] Currently allocated     0.00E+00 Mbytes, locked:    0 /   0

     iteration #  4     ecut=    90.00 Ry     beta= 0.40
     Davidson diagonalization with overlap

---- Real-time Memory Report at c_bands before calling an iterative solver
          4035 MiB given to the printing process from OS
          -709 MiB allocation reported by mallinfo(arena+hblkhd)
         55723 MiB available memory on the node where the printing process lives
     GPU memory used/free/total (MiB): 5824 / 10456 / 16280
------------------
     ethr =  4.71E-04,  avg # of iterations =  1.5
     Minimization algorithm failed to find Fermi energy: reverting to bisection
     Possible cause: smearing is larger than the electronic band-gap.

     total cpu time spent up to now is       65.1 secs

     total energy              =    -420.22575262 Ry
     estimated scf accuracy    <       0.13032187 Ry

     total magnetization       =     1.03 Bohr mag/cell
     absolute magnetization    =     1.24 Bohr mag/cell
[tb_dev] Currently allocated     2.97E+01 Mbytes, locked:    0 /  12
[tb_pin] Currently allocated     0.00E+00 Mbytes, locked:    0 /   0

     iteration #  5     ecut=    90.00 Ry     beta= 0.40
     Davidson diagonalization with overlap

---- Real-time Memory Report at c_bands before calling an iterative solver
          4156 MiB given to the printing process from OS
          -682 MiB allocation reported by mallinfo(arena+hblkhd)
         55698 MiB available memory on the node where the printing process lives
     GPU memory used/free/total (MiB): 5824 / 10456 / 16280
------------------
     ethr =  4.71E-04,  avg # of iterations =  1.0

     total cpu time spent up to now is       76.0 secs

     total energy              =    -420.23176756 Ry
     estimated scf accuracy    <       0.00668904 Ry

     total magnetization       =     1.27 Bohr mag/cell
     absolute magnetization    =     1.34 Bohr mag/cell
[tb_dev] Currently allocated     2.97E+01 Mbytes, locked:    0 /  12
[tb_pin] Currently allocated     0.00E+00 Mbytes, locked:    0 /   0

     iteration #  6     ecut=    90.00 Ry     beta= 0.40
     Davidson diagonalization with overlap

---- Real-time Memory Report at c_bands before calling an iterative solver
          4214 MiB given to the printing process from OS
          -664 MiB allocation reported by mallinfo(arena+hblkhd)
         55679 MiB available memory on the node where the printing process lives
     GPU memory used/free/total (MiB): 5824 / 10456 / 16280
------------------
     ethr =  3.04E-05,  avg # of iterations =  3.1
     Minimization algorithm failed to find Fermi energy: reverting to bisection
     Possible cause: smearing is larger than the electronic band-gap.

     total cpu time spent up to now is       90.5 secs

     total energy              =    -420.21194371 Ry
     estimated scf accuracy    <       0.17785109 Ry

     total magnetization       =     2.00 Bohr mag/cell
     absolute magnetization    =     2.00 Bohr mag/cell
[tb_dev] Currently allocated     2.97E+01 Mbytes, locked:    0 /  12
[tb_pin] Currently allocated     0.00E+00 Mbytes, locked:    0 /   0

     iteration #  7     ecut=    90.00 Ry     beta= 0.40
     Davidson diagonalization with overlap

---- Real-time Memory Report at c_bands before calling an iterative solver
          4274 MiB given to the printing process from OS
          -645 MiB allocation reported by mallinfo(arena+hblkhd)
         55656 MiB available memory on the node where the printing process lives
     GPU memory used/free/total (MiB): 6244 / 10036 / 16280
------------------
     ethr =  3.04E-05,  avg # of iterations =  2.0
     Minimization algorithm failed to find Fermi energy: reverting to bisection
     Possible cause: smearing is larger than the electronic band-gap.

     total cpu time spent up to now is      104.1 secs

     total energy              =    -420.22401958 Ry
     estimated scf accuracy    <       0.13430421 Ry

     total magnetization       =     0.51 Bohr mag/cell
     absolute magnetization    =     1.52 Bohr mag/cell
[tb_dev] Currently allocated     2.97E+01 Mbytes, locked:    0 /  12
[tb_pin] Currently allocated     0.00E+00 Mbytes, locked:    0 /   0

     iteration #  8     ecut=    90.00 Ry     beta= 0.40
     Davidson diagonalization with overlap

---- Real-time Memory Report at c_bands before calling an iterative solver
          4333 MiB given to the printing process from OS
          -626 MiB allocation reported by mallinfo(arena+hblkhd)
         55640 MiB available memory on the node where the printing process lives
     GPU memory used/free/total (MiB): 6244 / 10036 / 16280
------------------
     ethr =  3.04E-05,  avg # of iterations =  2.0

     total cpu time spent up to now is      117.4 secs

     total energy              =    -420.23209454 Ry
     estimated scf accuracy    <       0.02402356 Ry

     total magnetization       =     1.80 Bohr mag/cell
     absolute magnetization    =     1.80 Bohr mag/cell
[tb_dev] Currently allocated     2.97E+01 Mbytes, locked:    0 /  12
[tb_pin] Currently allocated     0.00E+00 Mbytes, locked:    0 /   0

     iteration #  9     ecut=    90.00 Ry     beta= 0.40
     Davidson diagonalization with overlap

---- Real-time Memory Report at c_bands before calling an iterative solver
          4399 MiB given to the printing process from OS
          -600 MiB allocation reported by mallinfo(arena+hblkhd)
         55613 MiB available memory on the node where the printing process lives
     GPU memory used/free/total (MiB): 6244 / 10036 / 16280
------------------
     ethr =  3.04E-05,  avg # of iterations =  1.0

     total cpu time spent up to now is      128.4 secs

     total energy              =    -420.23386665 Ry
     estimated scf accuracy    <       0.00270391 Ry

     total magnetization       =     1.51 Bohr mag/cell
     absolute magnetization    =     1.58 Bohr mag/cell
[tb_dev] Currently allocated     2.97E+01 Mbytes, locked:    0 /  12
[tb_pin] Currently allocated     0.00E+00 Mbytes, locked:    0 /   0

     iteration # 10     ecut=    90.00 Ry     beta= 0.40
     Davidson diagonalization with overlap

---- Real-time Memory Report at c_bands before calling an iterative solver
          4447 MiB given to the printing process from OS
          -582 MiB allocation reported by mallinfo(arena+hblkhd)
         55596 MiB available memory on the node where the printing process lives
     GPU memory used/free/total (MiB): 6244 / 10036 / 16280
------------------
     ethr =  1.23E-05,  avg # of iterations =  1.0

     total cpu time spent up to now is      139.4 secs

     total energy              =    -420.23306462 Ry
     estimated scf accuracy    <       0.00933711 Ry

     total magnetization       =     1.85 Bohr mag/cell
     absolute magnetization    =     1.85 Bohr mag/cell
[tb_dev] Currently allocated     2.97E+01 Mbytes, locked:    0 /  12
[tb_pin] Currently allocated     0.00E+00 Mbytes, locked:    0 /   0

     iteration # 11     ecut=    90.00 Ry     beta= 0.40
     Davidson diagonalization with overlap

---- Real-time Memory Report at c_bands before calling an iterative solver
          4458 MiB given to the printing process from OS
          -618 MiB allocation reported by mallinfo(arena+hblkhd)
         55593 MiB available memory on the node where the printing process lives
     GPU memory used/free/total (MiB): 6244 / 10036 / 16280
------------------
     ethr =  1.23E-05,  avg # of iterations =  1.8
     Minimization algorithm failed to find Fermi energy: reverting to bisection
     Possible cause: smearing is larger than the electronic band-gap.

     total cpu time spent up to now is      151.9 secs

     total energy              =    -420.23446235 Ry
     estimated scf accuracy    <       0.01117948 Ry

     total magnetization       =     1.45 Bohr mag/cell
     absolute magnetization    =     1.81 Bohr mag/cell
[tb_dev] Currently allocated     2.97E+01 Mbytes, locked:    0 /  12
[tb_pin] Currently allocated     0.00E+00 Mbytes, locked:    0 /   0

     iteration # 12     ecut=    90.00 Ry     beta= 0.40
     Davidson diagonalization with overlap

---- Real-time Memory Report at c_bands before calling an iterative solver
          4458 MiB given to the printing process from OS
          -574 MiB allocation reported by mallinfo(arena+hblkhd)
         55588 MiB available memory on the node where the printing process lives
     GPU memory used/free/total (MiB): 6244 / 10036 / 16280
------------------
     ethr =  1.23E-05,  avg # of iterations =  1.4
     Minimization algorithm failed to find Fermi energy: reverting to bisection
     Possible cause: smearing is larger than the electronic band-gap.

     total cpu time spent up to now is      163.1 secs

     total energy              =    -420.23475107 Ry
     estimated scf accuracy    <       0.00060425 Ry

     total magnetization       =     1.90 Bohr mag/cell
     absolute magnetization    =     1.90 Bohr mag/cell
[tb_dev] Currently allocated     2.97E+01 Mbytes, locked:    0 /  12
[tb_pin] Currently allocated     0.00E+00 Mbytes, locked:    0 /   0

     iteration # 13     ecut=    90.00 Ry     beta= 0.40
     Davidson diagonalization with overlap

---- Real-time Memory Report at c_bands before calling an iterative solver
          4466 MiB given to the printing process from OS
          -610 MiB allocation reported by mallinfo(arena+hblkhd)
         55587 MiB available memory on the node where the printing process lives
     GPU memory used/free/total (MiB): 6244 / 10036 / 16280
------------------
     ethr =  2.75E-06,  avg # of iterations =  1.1
     Minimization algorithm failed to find Fermi energy: reverting to bisection
     Possible cause: smearing is larger than the electronic band-gap.

     total cpu time spent up to now is      174.2 secs

     total energy              =    -420.23534249 Ry
     estimated scf accuracy    <       0.00103707 Ry

     total magnetization       =     1.71 Bohr mag/cell
     absolute magnetization    =     1.80 Bohr mag/cell
[tb_dev] Currently allocated     2.97E+01 Mbytes, locked:    0 /  12
[tb_pin] Currently allocated     0.00E+00 Mbytes, locked:    0 /   0

     iteration # 14     ecut=    90.00 Ry     beta= 0.40
     Davidson diagonalization with overlap

---- Real-time Memory Report at c_bands before calling an iterative solver
          4470 MiB given to the printing process from OS
          -567 MiB allocation reported by mallinfo(arena+hblkhd)
         55576 MiB available memory on the node where the printing process lives
     GPU memory used/free/total (MiB): 6244 / 10036 / 16280
------------------
     ethr =  2.75E-06,  avg # of iterations =  1.7
     Minimization algorithm failed to find Fermi energy: reverting to bisection
     Possible cause: smearing is larger than the electronic band-gap.

     total cpu time spent up to now is      186.1 secs

     total energy              =    -420.23566388 Ry
     estimated scf accuracy    <       0.00083501 Ry

     total magnetization       =     1.80 Bohr mag/cell
     absolute magnetization    =     1.91 Bohr mag/cell
[tb_dev] Currently allocated     2.97E+01 Mbytes, locked:    0 /  12
[tb_pin] Currently allocated     0.00E+00 Mbytes, locked:    0 /   0

     iteration # 15     ecut=    90.00 Ry     beta= 0.40
     Davidson diagonalization with overlap

---- Real-time Memory Report at c_bands before calling an iterative solver
          4473 MiB given to the printing process from OS
          -603 MiB allocation reported by mallinfo(arena+hblkhd)
         55579 MiB available memory on the node where the printing process lives
     GPU memory used/free/total (MiB): 6318 / 9962 / 16280
------------------
     ethr =  2.75E-06,  avg # of iterations =  1.0
     Minimization algorithm failed to find Fermi energy: reverting to bisection
     Possible cause: smearing is larger than the electronic band-gap.

     total cpu time spent up to now is      197.0 secs

     total energy              =    -420.23575341 Ry
     estimated scf accuracy    <       0.00061601 Ry

     total magnetization       =     1.84 Bohr mag/cell
     absolute magnetization    =     1.93 Bohr mag/cell
[tb_dev] Currently allocated     2.97E+01 Mbytes, locked:    0 /  12
[tb_pin] Currently allocated     0.00E+00 Mbytes, locked:    0 /   0

     iteration # 16     ecut=    90.00 Ry     beta= 0.40
     Davidson diagonalization with overlap

---- Real-time Memory Report at c_bands before calling an iterative solver
          4477 MiB given to the printing process from OS
          -560 MiB allocation reported by mallinfo(arena+hblkhd)
         55559 MiB available memory on the node where the printing process lives
     GPU memory used/free/total (MiB): 6318 / 9962 / 16280
------------------
     ethr =  2.75E-06,  avg # of iterations =  1.0
     Minimization algorithm failed to find Fermi energy: reverting to bisection
     Possible cause: smearing is larger than the electronic band-gap.

     total cpu time spent up to now is      207.9 secs

     total energy              =    -420.23579979 Ry
     estimated scf accuracy    <       0.00063160 Ry

     total magnetization       =     1.88 Bohr mag/cell
     absolute magnetization    =     1.95 Bohr mag/cell
[tb_dev] Currently allocated     2.97E+01 Mbytes, locked:    0 /  12
[tb_pin] Currently allocated     0.00E+00 Mbytes, locked:    0 /   0

     iteration # 17     ecut=    90.00 Ry     beta= 0.40
     Davidson diagonalization with overlap

---- Real-time Memory Report at c_bands before calling an iterative solver
          4480 MiB given to the printing process from OS
          -596 MiB allocation reported by mallinfo(arena+hblkhd)
         55569 MiB available memory on the node where the printing process lives
     GPU memory used/free/total (MiB): 6318 / 9962 / 16280
------------------
     ethr =  2.75E-06,  avg # of iterations =  1.0
     Minimization algorithm failed to find Fermi energy: reverting to bisection
     Possible cause: smearing is larger than the electronic band-gap.

     total cpu time spent up to now is      218.8 secs

     total energy              =    -420.23582465 Ry
     estimated scf accuracy    <       0.00096078 Ry

     total magnetization       =     1.94 Bohr mag/cell
     absolute magnetization    =     1.97 Bohr mag/cell
[tb_dev] Currently allocated     2.97E+01 Mbytes, locked:    0 /  12
[tb_pin] Currently allocated     0.00E+00 Mbytes, locked:    0 /   0

     iteration # 18     ecut=    90.00 Ry     beta= 0.40
     Davidson diagonalization with overlap

---- Real-time Memory Report at c_bands before calling an iterative solver
          4484 MiB given to the printing process from OS
          -552 MiB allocation reported by mallinfo(arena+hblkhd)
         55559 MiB available memory on the node where the printing process lives
     GPU memory used/free/total (MiB): 6318 / 9962 / 16280
------------------
     ethr =  2.75E-06,  avg # of iterations =  1.0
     Minimization algorithm failed to find Fermi energy: reverting to bisection
     Possible cause: smearing is larger than the electronic band-gap.

     total cpu time spent up to now is      229.8 secs

     total energy              =    -420.23557393 Ry
     estimated scf accuracy    <       0.00150063 Ry

     total magnetization       =     1.88 Bohr mag/cell
     absolute magnetization    =     1.94 Bohr mag/cell
[tb_dev] Currently allocated     2.97E+01 Mbytes, locked:    0 /  12
[tb_pin] Currently allocated     0.00E+00 Mbytes, locked:    0 /   0

     iteration # 19     ecut=    90.00 Ry     beta= 0.40
     Davidson diagonalization with overlap

---- Real-time Memory Report at c_bands before calling an iterative solver
          4488 MiB given to the printing process from OS
          -588 MiB allocation reported by mallinfo(arena+hblkhd)
         55562 MiB available memory on the node where the printing process lives
     GPU memory used/free/total (MiB): 6318 / 9962 / 16280
------------------
     ethr =  2.75E-06,  avg # of iterations =  1.0
     Minimization algorithm failed to find Fermi energy: reverting to bisection
     Possible cause: smearing is larger than the electronic band-gap.

     total cpu time spent up to now is      240.8 secs

     total energy              =    -420.23549179 Ry
     estimated scf accuracy    <       0.00159750 Ry

     total magnetization       =     1.75 Bohr mag/cell
     absolute magnetization    =     1.88 Bohr mag/cell
[tb_dev] Currently allocated     2.97E+01 Mbytes, locked:    0 /  12
[tb_pin] Currently allocated     0.00E+00 Mbytes, locked:    0 /   0

     iteration # 20     ecut=    90.00 Ry     beta= 0.40
     Davidson diagonalization with overlap

---- Real-time Memory Report at c_bands before calling an iterative solver
          4491 MiB given to the printing process from OS
          -545 MiB allocation reported by mallinfo(arena+hblkhd)
         55552 MiB available memory on the node where the printing process lives
     GPU memory used/free/total (MiB): 6318 / 9962 / 16280
------------------
     ethr =  2.75E-06,  avg # of iterations =  1.0
     Minimization algorithm failed to find Fermi energy: reverting to bisection
     Possible cause: smearing is larger than the electronic band-gap.

     total cpu time spent up to now is      251.7 secs

     total energy              =    -420.23586753 Ry
     estimated scf accuracy    <       0.00052782 Ry

     total magnetization       =     1.86 Bohr mag/cell
     absolute magnetization    =     1.94 Bohr mag/cell
[tb_dev] Currently allocated     2.97E+01 Mbytes, locked:    0 /  12
[tb_pin] Currently allocated     0.00E+00 Mbytes, locked:    0 /   0

     iteration # 21     ecut=    90.00 Ry     beta= 0.40
     Davidson diagonalization with overlap

---- Real-time Memory Report at c_bands before calling an iterative solver
          4496 MiB given to the printing process from OS
          -581 MiB allocation reported by mallinfo(arena+hblkhd)
         55553 MiB available memory on the node where the printing process lives
     GPU memory used/free/total (MiB): 6318 / 9962 / 16280
------------------
     ethr =  2.40E-06,  avg # of iterations =  1.0
     Minimization algorithm failed to find Fermi energy: reverting to bisection
     Possible cause: smearing is larger than the electronic band-gap.

     total cpu time spent up to now is      262.6 secs

     total energy              =    -420.23572292 Ry
     estimated scf accuracy    <       0.00011495 Ry

     total magnetization       =     1.94 Bohr mag/cell
     absolute magnetization    =     2.00 Bohr mag/cell
[tb_dev] Currently allocated     2.97E+01 Mbytes, locked:    0 /  12
[tb_pin] Currently allocated     0.00E+00 Mbytes, locked:    0 /   0

     iteration # 22     ecut=    90.00 Ry     beta= 0.40
     Davidson diagonalization with overlap

---- Real-time Memory Report at c_bands before calling an iterative solver
          4498 MiB given to the printing process from OS
          -538 MiB allocation reported by mallinfo(arena+hblkhd)
         55544 MiB available memory on the node where the printing process lives
     GPU memory used/free/total (MiB): 6318 / 9962 / 16280
------------------
     ethr =  5.22E-07,  avg # of iterations =  1.5

     total cpu time spent up to now is      274.8 secs

     total energy              =    -420.23588399 Ry
     estimated scf accuracy    <       0.00007609 Ry

     total magnetization       =     1.92 Bohr mag/cell
     absolute magnetization    =     1.97 Bohr mag/cell
[tb_dev] Currently allocated     2.97E+01 Mbytes, locked:    0 /  12
[tb_pin] Currently allocated     0.00E+00 Mbytes, locked:    0 /   0

     iteration # 23     ecut=    90.00 Ry     beta= 0.40
     Davidson diagonalization with overlap

---- Real-time Memory Report at c_bands before calling an iterative solver
          4503 MiB given to the printing process from OS
          -573 MiB allocation reported by mallinfo(arena+hblkhd)
         55548 MiB available memory on the node where the printing process lives
     GPU memory used/free/total (MiB): 6318 / 9962 / 16280
------------------
     ethr =  3.46E-07,  avg # of iterations =  1.9
     Minimization algorithm failed to find Fermi energy: reverting to bisection
     Possible cause: smearing is larger than the electronic band-gap.

     total cpu time spent up to now is      287.4 secs

     total energy              =    -420.23596192 Ry
     estimated scf accuracy    <       0.00006216 Ry

     total magnetization       =     1.95 Bohr mag/cell
     absolute magnetization    =     2.01 Bohr mag/cell
[tb_dev] Currently allocated     2.97E+01 Mbytes, locked:    0 /  12
[tb_pin] Currently allocated     0.00E+00 Mbytes, locked:    0 /   0

     iteration # 24     ecut=    90.00 Ry     beta= 0.40
     Davidson diagonalization with overlap

---- Real-time Memory Report at c_bands before calling an iterative solver
          4506 MiB given to the printing process from OS
          -530 MiB allocation reported by mallinfo(arena+hblkhd)
         55537 MiB available memory on the node where the printing process lives
     GPU memory used/free/total (MiB): 6318 / 9962 / 16280
------------------
     ethr =  2.83E-07,  avg # of iterations =  2.0
     Minimization algorithm failed to find Fermi energy: reverting to bisection
     Possible cause: smearing is larger than the electronic band-gap.

     total cpu time spent up to now is      299.5 secs

     total energy              =    -420.23597203 Ry
     estimated scf accuracy    <       0.00006344 Ry

     total magnetization       =     1.95 Bohr mag/cell
     absolute magnetization    =     2.03 Bohr mag/cell
[tb_dev] Currently allocated     2.97E+01 Mbytes, locked:    0 /  12
[tb_pin] Currently allocated     0.00E+00 Mbytes, locked:    0 /   0

     iteration # 25     ecut=    90.00 Ry     beta= 0.40
     Davidson diagonalization with overlap

---- Real-time Memory Report at c_bands before calling an iterative solver
          4510 MiB given to the printing process from OS
          -566 MiB allocation reported by mallinfo(arena+hblkhd)
         55541 MiB available memory on the node where the printing process lives
     GPU memory used/free/total (MiB): 6318 / 9962 / 16280
------------------
     ethr =  2.83E-07,  avg # of iterations =  1.0
     Minimization algorithm failed to find Fermi energy: reverting to bisection
     Possible cause: smearing is larger than the electronic band-gap.

     total cpu time spent up to now is      310.4 secs

     total energy              =    -420.23598861 Ry
     estimated scf accuracy    <       0.00006296 Ry

     total magnetization       =     1.95 Bohr mag/cell
     absolute magnetization    =     2.03 Bohr mag/cell
[tb_dev] Currently allocated     2.97E+01 Mbytes, locked:    0 /  12
[tb_pin] Currently allocated     0.00E+00 Mbytes, locked:    0 /   0

     iteration # 26     ecut=    90.00 Ry     beta= 0.40
     Davidson diagonalization with overlap

---- Real-time Memory Report at c_bands before calling an iterative solver
          4514 MiB given to the printing process from OS
          -523 MiB allocation reported by mallinfo(arena+hblkhd)
         55531 MiB available memory on the node where the printing process lives
     GPU memory used/free/total (MiB): 6318 / 9962 / 16280
------------------
     ethr =  2.83E-07,  avg # of iterations =  1.3
     Minimization algorithm failed to find Fermi energy: reverting to bisection
     Possible cause: smearing is larger than the electronic band-gap.

     total cpu time spent up to now is      321.6 secs

     total energy              =    -420.23597967 Ry
     estimated scf accuracy    <       0.00006384 Ry

     total magnetization       =     1.96 Bohr mag/cell
     absolute magnetization    =     2.04 Bohr mag/cell
[tb_dev] Currently allocated     2.97E+01 Mbytes, locked:    0 /  12
[tb_pin] Currently allocated     0.00E+00 Mbytes, locked:    0 /   0

     iteration # 27     ecut=    90.00 Ry     beta= 0.40
     Davidson diagonalization with overlap

---- Real-time Memory Report at c_bands before calling an iterative solver
          4517 MiB given to the printing process from OS
          -559 MiB allocation reported by mallinfo(arena+hblkhd)
         55532 MiB available memory on the node where the printing process lives
     GPU memory used/free/total (MiB): 6318 / 9962 / 16280
------------------
     ethr =  2.83E-07,  avg # of iterations =  1.0
     Minimization algorithm failed to find Fermi energy: reverting to bisection
     Possible cause: smearing is larger than the electronic band-gap.

     total cpu time spent up to now is      332.5 secs

     total energy              =    -420.23599181 Ry
     estimated scf accuracy    <       0.00004989 Ry

     total magnetization       =     1.95 Bohr mag/cell
     absolute magnetization    =     2.03 Bohr mag/cell
[tb_dev] Currently allocated     2.97E+01 Mbytes, locked:    0 /  12
[tb_pin] Currently allocated     0.00E+00 Mbytes, locked:    0 /   0

     iteration # 28     ecut=    90.00 Ry     beta= 0.40
     Davidson diagonalization with overlap

---- Real-time Memory Report at c_bands before calling an iterative solver
          4521 MiB given to the printing process from OS
          -516 MiB allocation reported by mallinfo(arena+hblkhd)
         55523 MiB available memory on the node where the printing process lives
     GPU memory used/free/total (MiB): 6318 / 9962 / 16280
------------------
     ethr =  2.27E-07,  avg # of iterations =  1.0
     Minimization algorithm failed to find Fermi energy: reverting to bisection
     Possible cause: smearing is larger than the electronic band-gap.

     total cpu time spent up to now is      343.4 secs

     total energy              =    -420.23599836 Ry
     estimated scf accuracy    <       0.00001690 Ry

     total magnetization       =     1.97 Bohr mag/cell
     absolute magnetization    =     2.04 Bohr mag/cell
[tb_dev] Currently allocated     2.97E+01 Mbytes, locked:    0 /  12
[tb_pin] Currently allocated     0.00E+00 Mbytes, locked:    0 /   0

     iteration # 29     ecut=    90.00 Ry     beta= 0.40
     Davidson diagonalization with overlap

---- Real-time Memory Report at c_bands before calling an iterative solver
          4524 MiB given to the printing process from OS
          -551 MiB allocation reported by mallinfo(arena+hblkhd)
         55528 MiB available memory on the node where the printing process lives
     GPU memory used/free/total (MiB): 6318 / 9962 / 16280
------------------
     ethr =  7.68E-08,  avg # of iterations =  2.2
     Minimization algorithm failed to find Fermi energy: reverting to bisection
     Possible cause: smearing is larger than the electronic band-gap.

     total cpu time spent up to now is      356.9 secs

     total energy              =    -420.23602639 Ry
     estimated scf accuracy    <       0.00004500 Ry

     total magnetization       =     1.96 Bohr mag/cell
     absolute magnetization    =     2.03 Bohr mag/cell
[tb_dev] Currently allocated     2.97E+01 Mbytes, locked:    0 /  12
[tb_pin] Currently allocated     0.00E+00 Mbytes, locked:    0 /   0

     iteration # 30     ecut=    90.00 Ry     beta= 0.40
     Davidson diagonalization with overlap

---- Real-time Memory Report at c_bands before calling an iterative solver
          4528 MiB given to the printing process from OS
          -508 MiB allocation reported by mallinfo(arena+hblkhd)
         55515 MiB available memory on the node where the printing process lives
     GPU memory used/free/total (MiB): 6318 / 9962 / 16280
------------------
     ethr =  7.68E-08,  avg # of iterations =  2.6
     Minimization algorithm failed to find Fermi energy: reverting to bisection
     Possible cause: smearing is larger than the electronic band-gap.

     total cpu time spent up to now is      369.8 secs

     total energy              =    -420.23604543 Ry
     estimated scf accuracy    <       0.00001880 Ry

     total magnetization       =     1.99 Bohr mag/cell
     absolute magnetization    =     2.05 Bohr mag/cell
[tb_dev] Currently allocated     2.97E+01 Mbytes, locked:    0 /  12
[tb_pin] Currently allocated     0.00E+00 Mbytes, locked:    0 /   0

     iteration # 31     ecut=    90.00 Ry     beta= 0.40
     Davidson diagonalization with overlap

---- Real-time Memory Report at c_bands before calling an iterative solver
          4532 MiB given to the printing process from OS
          -543 MiB allocation reported by mallinfo(arena+hblkhd)
         55518 MiB available memory on the node where the printing process lives
     GPU memory used/free/total (MiB): 6318 / 9962 / 16280
------------------
     ethr =  7.68E-08,  avg # of iterations =  1.9
     Minimization algorithm failed to find Fermi energy: reverting to bisection
     Possible cause: smearing is larger than the electronic band-gap.

     total cpu time spent up to now is      381.9 secs

     total energy              =    -420.23604625 Ry
     estimated scf accuracy    <       0.00000759 Ry

     total magnetization       =     2.00 Bohr mag/cell
     absolute magnetization    =     2.06 Bohr mag/cell
[tb_dev] Currently allocated     2.97E+01 Mbytes, locked:    0 /  12
[tb_pin] Currently allocated     0.00E+00 Mbytes, locked:    0 /   0

     iteration # 32     ecut=    90.00 Ry     beta= 0.40
     Davidson diagonalization with overlap

---- Real-time Memory Report at c_bands before calling an iterative solver
          4536 MiB given to the printing process from OS
          -500 MiB allocation reported by mallinfo(arena+hblkhd)
         55506 MiB available memory on the node where the printing process lives
     GPU memory used/free/total (MiB): 6318 / 9962 / 16280
------------------
     ethr =  3.45E-08,  avg # of iterations =  3.0
     Minimization algorithm failed to find Fermi energy: reverting to bisection
     Possible cause: smearing is larger than the electronic band-gap.

     total cpu time spent up to now is      396.7 secs

     total energy              =    -420.23606009 Ry
     estimated scf accuracy    <       0.00000591 Ry

     total magnetization       =     2.02 Bohr mag/cell
     absolute magnetization    =     2.08 Bohr mag/cell
[tb_dev] Currently allocated     2.97E+01 Mbytes, locked:    0 /  12
[tb_pin] Currently allocated     0.00E+00 Mbytes, locked:    0 /   0

     iteration # 33     ecut=    90.00 Ry     beta= 0.40
     Davidson diagonalization with overlap

---- Real-time Memory Report at c_bands before calling an iterative solver
          4541 MiB given to the printing process from OS
          -535 MiB allocation reported by mallinfo(arena+hblkhd)
         55510 MiB available memory on the node where the printing process lives
     GPU memory used/free/total (MiB): 6318 / 9962 / 16280
------------------
     ethr =  2.69E-08,  avg # of iterations =  1.1
     Minimization algorithm failed to find Fermi energy: reverting to bisection
     Possible cause: smearing is larger than the electronic band-gap.

     total cpu time spent up to now is      407.7 secs

     total energy              =    -420.23606114 Ry
     estimated scf accuracy    <       0.00000455 Ry

     total magnetization       =     2.01 Bohr mag/cell
     absolute magnetization    =     2.08 Bohr mag/cell
[tb_dev] Currently allocated     2.97E+01 Mbytes, locked:    0 /  12
[tb_pin] Currently allocated     0.00E+00 Mbytes, locked:    0 /   0

     iteration # 34     ecut=    90.00 Ry     beta= 0.40
     Davidson diagonalization with overlap

---- Real-time Memory Report at c_bands before calling an iterative solver
          4544 MiB given to the printing process from OS
          -492 MiB allocation reported by mallinfo(arena+hblkhd)
         55499 MiB available memory on the node where the printing process lives
     GPU memory used/free/total (MiB): 6318 / 9962 / 16280
------------------
     ethr =  2.07E-08,  avg # of iterations =  1.8
     Minimization algorithm failed to find Fermi energy: reverting to bisection
     Possible cause: smearing is larger than the electronic band-gap.

     total cpu time spent up to now is      419.5 secs

     total energy              =    -420.23605203 Ry
     estimated scf accuracy    <       0.00000571 Ry

     total magnetization       =     2.02 Bohr mag/cell
     absolute magnetization    =     2.08 Bohr mag/cell
[tb_dev] Currently allocated     2.97E+01 Mbytes, locked:    0 /  12
[tb_pin] Currently allocated     0.00E+00 Mbytes, locked:    0 /   0

     iteration # 35     ecut=    90.00 Ry     beta= 0.40
     Davidson diagonalization with overlap

---- Real-time Memory Report at c_bands before calling an iterative solver
          4549 MiB given to the printing process from OS
          -527 MiB allocation reported by mallinfo(arena+hblkhd)
         55502 MiB available memory on the node where the printing process lives
     GPU memory used/free/total (MiB): 6318 / 9962 / 16280
------------------
     ethr =  2.07E-08,  avg # of iterations =  1.7
     Minimization algorithm failed to find Fermi energy: reverting to bisection
     Possible cause: smearing is larger than the electronic band-gap.

     total cpu time spent up to now is      431.9 secs

     total energy              =    -420.23605729 Ry
     estimated scf accuracy    <       0.00000278 Ry

     total magnetization       =     2.01 Bohr mag/cell
     absolute magnetization    =     2.07 Bohr mag/cell
[tb_dev] Currently allocated     2.97E+01 Mbytes, locked:    0 /  12
[tb_pin] Currently allocated     0.00E+00 Mbytes, locked:    0 /   0

     iteration # 36     ecut=    90.00 Ry     beta= 0.40
     Davidson diagonalization with overlap

---- Real-time Memory Report at c_bands before calling an iterative solver
          4552 MiB given to the printing process from OS
          -484 MiB allocation reported by mallinfo(arena+hblkhd)
         55491 MiB available memory on the node where the printing process lives
     GPU memory used/free/total (MiB): 6318 / 9962 / 16280
------------------
     ethr =  1.26E-08,  avg # of iterations =  1.8
     Minimization algorithm failed to find Fermi energy: reverting to bisection
     Possible cause: smearing is larger than the electronic band-gap.

     total cpu time spent up to now is      444.3 secs

     total energy              =    -420.23605759 Ry
     estimated scf accuracy    <       0.00000236 Ry

     total magnetization       =     2.01 Bohr mag/cell
     absolute magnetization    =     2.07 Bohr mag/cell
[tb_dev] Currently allocated     2.97E+01 Mbytes, locked:    0 /  12
[tb_pin] Currently allocated     0.00E+00 Mbytes, locked:    0 /   0

     iteration # 37     ecut=    90.00 Ry     beta= 0.40
     Davidson diagonalization with overlap

---- Real-time Memory Report at c_bands before calling an iterative solver
          4556 MiB given to the printing process from OS
          -519 MiB allocation reported by mallinfo(arena+hblkhd)
         55497 MiB available memory on the node where the printing process lives
     GPU memory used/free/total (MiB): 6318 / 9962 / 16280
------------------
     ethr =  1.07E-08,  avg # of iterations =  1.0
     Minimization algorithm failed to find Fermi energy: reverting to bisection
     Possible cause: smearing is larger than the electronic band-gap.

     total cpu time spent up to now is      455.2 secs

     total energy              =    -420.23605423 Ry
     estimated scf accuracy    <       0.00000177 Ry

     total magnetization       =     2.01 Bohr mag/cell
     absolute magnetization    =     2.07 Bohr mag/cell
[tb_dev] Currently allocated     2.97E+01 Mbytes, locked:    0 /  12
[tb_pin] Currently allocated     0.00E+00 Mbytes, locked:    0 /   0

     iteration # 38     ecut=    90.00 Ry     beta= 0.40
     Davidson diagonalization with overlap

---- Real-time Memory Report at c_bands before calling an iterative solver
          4560 MiB given to the printing process from OS
          -476 MiB allocation reported by mallinfo(arena+hblkhd)
         55483 MiB available memory on the node where the printing process lives
     GPU memory used/free/total (MiB): 6318 / 9962 / 16280
------------------
     ethr =  8.04E-09,  avg # of iterations =  2.2
     Minimization algorithm failed to find Fermi energy: reverting to bisection
     Possible cause: smearing is larger than the electronic band-gap.

     total cpu time spent up to now is      468.6 secs

     total energy              =    -420.23605665 Ry
     estimated scf accuracy    <       0.00000228 Ry

     total magnetization       =     2.00 Bohr mag/cell
     absolute magnetization    =     2.07 Bohr mag/cell
[tb_dev] Currently allocated     2.97E+01 Mbytes, locked:    0 /  12
[tb_pin] Currently allocated     0.00E+00 Mbytes, locked:    0 /   0

     iteration # 39     ecut=    90.00 Ry     beta= 0.40
     Davidson diagonalization with overlap

---- Real-time Memory Report at c_bands before calling an iterative solver
          4564 MiB given to the printing process from OS
          -511 MiB allocation reported by mallinfo(arena+hblkhd)
         55486 MiB available memory on the node where the printing process lives
     GPU memory used/free/total (MiB): 6318 / 9962 / 16280
------------------
     ethr =  8.04E-09,  avg # of iterations =  1.0
     Minimization algorithm failed to find Fermi energy: reverting to bisection
     Possible cause: smearing is larger than the electronic band-gap.

     total cpu time spent up to now is      479.5 secs

     total energy              =    -420.23605702 Ry
     estimated scf accuracy    <       0.00000234 Ry

     total magnetization       =     2.01 Bohr mag/cell
     absolute magnetization    =     2.07 Bohr mag/cell
[tb_dev] Currently allocated     2.97E+01 Mbytes, locked:    0 /  12
[tb_pin] Currently allocated     0.00E+00 Mbytes, locked:    0 /   0

     iteration # 40     ecut=    90.00 Ry     beta= 0.40
     Davidson diagonalization with overlap

---- Real-time Memory Report at c_bands before calling an iterative solver
          4569 MiB given to the printing process from OS
          -468 MiB allocation reported by mallinfo(arena+hblkhd)
         55474 MiB available memory on the node where the printing process lives
     GPU memory used/free/total (MiB): 6318 / 9962 / 16280
------------------
     ethr =  8.04E-09,  avg # of iterations =  1.0
     Minimization algorithm failed to find Fermi energy: reverting to bisection
     Possible cause: smearing is larger than the electronic band-gap.

     total cpu time spent up to now is      490.5 secs

     total energy              =    -420.23605675 Ry
     estimated scf accuracy    <       0.00000192 Ry

     total magnetization       =     2.01 Bohr mag/cell
     absolute magnetization    =     2.07 Bohr mag/cell
[tb_dev] Currently allocated     2.97E+01 Mbytes, locked:    0 /  12
[tb_pin] Currently allocated     0.00E+00 Mbytes, locked:    0 /   0

     iteration # 41     ecut=    90.00 Ry     beta= 0.40
     Davidson diagonalization with overlap

---- Real-time Memory Report at c_bands before calling an iterative solver
          4572 MiB given to the printing process from OS
          -503 MiB allocation reported by mallinfo(arena+hblkhd)
         55478 MiB available memory on the node where the printing process lives
     GPU memory used/free/total (MiB): 6318 / 9962 / 16280
------------------
     ethr =  8.04E-09,  avg # of iterations =  1.5
     Minimization algorithm failed to find Fermi energy: reverting to bisection
     Possible cause: smearing is larger than the electronic band-gap.

     total cpu time spent up to now is      502.0 secs

     total energy              =    -420.23605605 Ry
     estimated scf accuracy    <       0.00000213 Ry

     total magnetization       =     2.01 Bohr mag/cell
     absolute magnetization    =     2.07 Bohr mag/cell
[tb_dev] Currently allocated     2.97E+01 Mbytes, locked:    0 /  12
[tb_pin] Currently allocated     0.00E+00 Mbytes, locked:    0 /   0

     iteration # 42     ecut=    90.00 Ry     beta= 0.40
     Davidson diagonalization with overlap

---- Real-time Memory Report at c_bands before calling an iterative solver
          4577 MiB given to the printing process from OS
          -459 MiB allocation reported by mallinfo(arena+hblkhd)
         55466 MiB available memory on the node where the printing process lives
     GPU memory used/free/total (MiB): 6318 / 9962 / 16280
------------------
     ethr =  8.04E-09,  avg # of iterations =  1.5
     Minimization algorithm failed to find Fermi energy: reverting to bisection
     Possible cause: smearing is larger than the electronic band-gap.

     total cpu time spent up to now is      514.3 secs

     total energy              =    -420.23605531 Ry
     estimated scf accuracy    <       0.00000229 Ry

     total magnetization       =     2.01 Bohr mag/cell
     absolute magnetization    =     2.07 Bohr mag/cell
[tb_dev] Currently allocated     2.97E+01 Mbytes, locked:    0 /  12
[tb_pin] Currently allocated     0.00E+00 Mbytes, locked:    0 /   0

     iteration # 43     ecut=    90.00 Ry     beta= 0.40
     Davidson diagonalization with overlap

---- Real-time Memory Report at c_bands before calling an iterative solver
          4580 MiB given to the printing process from OS
          -495 MiB allocation reported by mallinfo(arena+hblkhd)
         55468 MiB available memory on the node where the printing process lives
     GPU memory used/free/total (MiB): 6318 / 9962 / 16280
------------------
     ethr =  8.04E-09,  avg # of iterations =  1.0
     Minimization algorithm failed to find Fermi energy: reverting to bisection
     Possible cause: smearing is larger than the electronic band-gap.

     total cpu time spent up to now is      525.4 secs

     total energy              =    -420.23605650 Ry
     estimated scf accuracy    <       0.00000185 Ry

     total magnetization       =     2.01 Bohr mag/cell
     absolute magnetization    =     2.07 Bohr mag/cell
[tb_dev] Currently allocated     2.97E+01 Mbytes, locked:    0 /  12
[tb_pin] Currently allocated     0.00E+00 Mbytes, locked:    0 /   0

     iteration # 44     ecut=    90.00 Ry     beta= 0.40
     Davidson diagonalization with overlap

---- Real-time Memory Report at c_bands before calling an iterative solver
          4585 MiB given to the printing process from OS
          -451 MiB allocation reported by mallinfo(arena+hblkhd)
         55460 MiB available memory on the node where the printing process lives
     GPU memory used/free/total (MiB): 6318 / 9962 / 16280
------------------
     ethr =  8.04E-09,  avg # of iterations =  1.6
     Minimization algorithm failed to find Fermi energy: reverting to bisection
     Possible cause: smearing is larger than the electronic band-gap.

     total cpu time spent up to now is      537.5 secs

     total energy              =    -420.23605254 Ry
     estimated scf accuracy    <       0.00000297 Ry

     total magnetization       =     2.01 Bohr mag/cell
     absolute magnetization    =     2.07 Bohr mag/cell
[tb_dev] Currently allocated     2.97E+01 Mbytes, locked:    0 /  12
[tb_pin] Currently allocated     0.00E+00 Mbytes, locked:    0 /   0

     iteration # 45     ecut=    90.00 Ry     beta= 0.40
     Davidson diagonalization with overlap

---- Real-time Memory Report at c_bands before calling an iterative solver
          4589 MiB given to the printing process from OS
          -487 MiB allocation reported by mallinfo(arena+hblkhd)
         55462 MiB available memory on the node where the printing process lives
     GPU memory used/free/total (MiB): 6318 / 9962 / 16280
------------------
     ethr =  8.04E-09,  avg # of iterations =  2.0
     Minimization algorithm failed to find Fermi energy: reverting to bisection
     Possible cause: smearing is larger than the electronic band-gap.

     total cpu time spent up to now is      550.7 secs

     total energy              =    -420.23605456 Ry
     estimated scf accuracy    <       0.00000206 Ry

     total magnetization       =     2.01 Bohr mag/cell
     absolute magnetization    =     2.07 Bohr mag/cell
[tb_dev] Currently allocated     2.97E+01 Mbytes, locked:    0 /  12
[tb_pin] Currently allocated     0.00E+00 Mbytes, locked:    0 /   0

     iteration # 46     ecut=    90.00 Ry     beta= 0.40
     Davidson diagonalization with overlap

---- Real-time Memory Report at c_bands before calling an iterative solver
          4593 MiB given to the printing process from OS
          -443 MiB allocation reported by mallinfo(arena+hblkhd)
         55451 MiB available memory on the node where the printing process lives
     GPU memory used/free/total (MiB): 6318 / 9962 / 16280
------------------
     ethr =  8.04E-09,  avg # of iterations =  1.0
     Minimization algorithm failed to find Fermi energy: reverting to bisection
     Possible cause: smearing is larger than the electronic band-gap.

     total cpu time spent up to now is      561.6 secs

     total energy              =    -420.23605133 Ry
     estimated scf accuracy    <       0.00000143 Ry

     total magnetization       =     2.01 Bohr mag/cell
     absolute magnetization    =     2.07 Bohr mag/cell
[tb_dev] Currently allocated     2.97E+01 Mbytes, locked:    0 /  12
[tb_pin] Currently allocated     0.00E+00 Mbytes, locked:    0 /   0

     iteration # 47     ecut=    90.00 Ry     beta= 0.40
     Davidson diagonalization with overlap

---- Real-time Memory Report at c_bands before calling an iterative solver
          4597 MiB given to the printing process from OS
          -479 MiB allocation reported by mallinfo(arena+hblkhd)
         55454 MiB available memory on the node where the printing process lives
     GPU memory used/free/total (MiB): 6318 / 9962 / 16280
------------------
     ethr =  6.51E-09,  avg # of iterations =  2.0
     Minimization algorithm failed to find Fermi energy: reverting to bisection
     Possible cause: smearing is larger than the electronic band-gap.

     total cpu time spent up to now is      574.8 secs

     total energy              =    -420.23605041 Ry
     estimated scf accuracy    <       0.00000158 Ry

     total magnetization       =     2.01 Bohr mag/cell
     absolute magnetization    =     2.07 Bohr mag/cell
[tb_dev] Currently allocated     2.97E+01 Mbytes, locked:    0 /  12
[tb_pin] Currently allocated     0.00E+00 Mbytes, locked:    0 /   0

     iteration # 48     ecut=    90.00 Ry     beta= 0.40
     Davidson diagonalization with overlap

---- Real-time Memory Report at c_bands before calling an iterative solver
          4600 MiB given to the printing process from OS
          -435 MiB allocation reported by mallinfo(arena+hblkhd)
         55443 MiB available memory on the node where the printing process lives
     GPU memory used/free/total (MiB): 6318 / 9962 / 16280
------------------
     ethr =  6.51E-09,  avg # of iterations =  1.5
     Minimization algorithm failed to find Fermi energy: reverting to bisection
     Possible cause: smearing is larger than the electronic band-gap.

     total cpu time spent up to now is      587.0 secs

     total energy              =    -420.23605141 Ry
     estimated scf accuracy    <       0.00000131 Ry

     total magnetization       =     2.01 Bohr mag/cell
     absolute magnetization    =     2.06 Bohr mag/cell
[tb_dev] Currently allocated     2.97E+01 Mbytes, locked:    0 /  12
[...]
     Davidson diagonalization with overlap

---- Real-time Memory Report at c_bands before calling an iterative solver
          4677 MiB given to the printing process from OS
          -398 MiB allocation reported by mallinfo(arena+hblkhd)
         55374 MiB available memory on the node where the printing process lives
     GPU memory used/free/total (MiB): 6318 / 9962 / 16280
------------------
     ethr =  5.15E-09,  avg # of iterations =  2.1
     Minimization algorithm failed to find Fermi energy: reverting to bisection
     Possible cause: smearing is larger than the electronic band-gap.

     total cpu time spent up to now is      825.0 secs

     total energy              =    -420.23605281 Ry
     estimated scf accuracy    <       0.00000100 Ry

     total magnetization       =     2.01 Bohr mag/cell
     absolute magnetization    =     2.07 Bohr mag/cell
[tb_dev] Currently allocated     2.97E+01 Mbytes, locked:    0 /  12
[tb_pin] Currently allocated     0.00E+00 Mbytes, locked:    0 /   0

     iteration # 68     ecut=    90.00 Ry     beta= 0.40
     Davidson diagonalization with overlap

---- Real-time Memory Report at c_bands before calling an iterative solver
          4682 MiB given to the printing process from OS
          -355 MiB allocation reported by mallinfo(arena+hblkhd)
         55364 MiB available memory on the node where the printing process lives
     GPU memory used/free/total (MiB): 6318 / 9962 / 16280
------------------
     ethr =  4.52E-09,  avg # of iterations =  1.5
     Minimization algorithm failed to find Fermi energy: reverting to bisection
     Possible cause: smearing is larger than the electronic band-gap.

     total cpu time spent up to now is      836.9 secs

     total energy              =    -420.23603670 Ry
     estimated scf accuracy    <       0.00000117 Ry

     total magnetization       =     2.01 Bohr mag/cell
     absolute magnetization    =     2.07 Bohr mag/cell
[tb_dev] Currently allocated     2.97E+01 Mbytes, locked:    0 /  12
[tb_pin] Currently allocated     0.00E+00 Mbytes, locked:    0 /   0

     iteration # 69     ecut=    90.00 Ry     beta= 0.40
     Davidson diagonalization with overlap

---- Real-time Memory Report at c_bands before calling an iterative solver
          4685 MiB given to the printing process from OS
          -390 MiB allocation reported by mallinfo(arena+hblkhd)
         55366 MiB available memory on the node where the printing process lives
     GPU memory used/free/total (MiB): 6318 / 9962 / 16280
------------------
     ethr =  4.52E-09,  avg # of iterations =  2.6
     Minimization algorithm failed to find Fermi energy: reverting to bisection
     Possible cause: smearing is larger than the electronic band-gap.

     total cpu time spent up to now is      851.6 secs

     total energy              =    -420.23604303 Ry
     estimated scf accuracy    <       0.00000202 Ry

     total magnetization       =     2.02 Bohr mag/cell
     absolute magnetization    =     2.06 Bohr mag/cell
[tb_dev] Currently allocated     2.97E+01 Mbytes, locked:    0 /  12
[tb_pin] Currently allocated     0.00E+00 Mbytes, locked:    0 /   0

     iteration # 70     ecut=    90.00 Ry     beta= 0.40
     Davidson diagonalization with overlap

---- Real-time Memory Report at c_bands before calling an iterative solver
          4690 MiB given to the printing process from OS
          -346 MiB allocation reported by mallinfo(arena+hblkhd)
         55352 MiB available memory on the node where the printing process lives
     GPU memory used/free/total (MiB): 6318 / 9962 / 16280
------------------
     ethr =  4.52E-09,  avg # of iterations =  2.5
     Minimization algorithm failed to find Fermi energy: reverting to bisection
     Possible cause: smearing is larger than the electronic band-gap.

     total cpu time spent up to now is      866.2 secs

     total energy              =    -420.23605323 Ry
     estimated scf accuracy    <       0.00000163 Ry

     total magnetization       =     2.02 Bohr mag/cell
     absolute magnetization    =     2.07 Bohr mag/cell
[tb_dev] Currently allocated     2.97E+01 Mbytes, locked:    0 /  12
[tb_pin] Currently allocated     0.00E+00 Mbytes, locked:    0 /   0

     iteration # 71     ecut=    90.00 Ry     beta= 0.40
     Davidson diagonalization with overlap

---- Real-time Memory Report at c_bands before calling an iterative solver
          4694 MiB given to the printing process from OS
          -382 MiB allocation reported by mallinfo(arena+hblkhd)
         55360 MiB available memory on the node where the printing process lives
     GPU memory used/free/total (MiB): 6318 / 9962 / 16280
------------------
     ethr =  4.52E-09,  avg # of iterations =  2.0
     Minimization algorithm failed to find Fermi energy: reverting to bisection
     Possible cause: smearing is larger than the electronic band-gap.

     total cpu time spent up to now is      879.1 secs

     total energy              =    -420.23605375 Ry
     estimated scf accuracy    <       0.00000171 Ry

     total magnetization       =     2.01 Bohr mag/cell
     absolute magnetization    =     2.07 Bohr mag/cell
[tb_dev] Currently allocated     2.97E+01 Mbytes, locked:    0 /  12
[tb_pin] Currently allocated     0.00E+00 Mbytes, locked:    0 /   0

     iteration # 72     ecut=    90.00 Ry     beta= 0.40
     Davidson diagonalization with overlap

---- Real-time Memory Report at c_bands before calling an iterative solver
          4698 MiB given to the printing process from OS
          -338 MiB allocation reported by mallinfo(arena+hblkhd)
         55348 MiB available memory on the node where the printing process lives
     GPU memory used/free/total (MiB): 6318 / 9962 / 16280
------------------
     ethr =  4.52E-09,  avg # of iterations =  1.0
     Minimization algorithm failed to find Fermi energy: reverting to bisection
     Possible cause: smearing is larger than the electronic band-gap.

     total cpu time spent up to now is      890.1 secs

     total energy              =    -420.23604156 Ry
     estimated scf accuracy    <       0.00000160 Ry

     total magnetization       =     2.01 Bohr mag/cell
     absolute magnetization    =     2.07 Bohr mag/cell
[tb_dev] Currently allocated     2.97E+01 Mbytes, locked:    0 /  12
[tb_pin] Currently allocated     0.00E+00 Mbytes, locked:    0 /   0

     iteration # 73     ecut=    90.00 Ry     beta= 0.40
     Davidson diagonalization with overlap

---- Real-time Memory Report at c_bands before calling an iterative solver
          4702 MiB given to the printing process from OS
          -374 MiB allocation reported by mallinfo(arena+hblkhd)
         55352 MiB available memory on the node where the printing process lives
     GPU memory used/free/total (MiB): 6318 / 9962 / 16280
------------------
     ethr =  4.52E-09,  avg # of iterations =  2.6
     Minimization algorithm failed to find Fermi energy: reverting to bisection
     Possible cause: smearing is larger than the electronic band-gap.

     total cpu time spent up to now is      904.8 secs

     total energy              =    -420.23604503 Ry
     estimated scf accuracy    <       0.00000218 Ry

     total magnetization       =     2.01 Bohr mag/cell
     absolute magnetization    =     2.06 Bohr mag/cell
[tb_dev] Currently allocated     2.97E+01 Mbytes, locked:    0 /  12
[tb_pin] Currently allocated     0.00E+00 Mbytes, locked:    0 /   0

     iteration # 74     ecut=    90.00 Ry     beta= 0.40
     Davidson diagonalization with overlap

---- Real-time Memory Report at c_bands before calling an iterative solver
          4705 MiB given to the printing process from OS
          -330 MiB allocation reported by mallinfo(arena+hblkhd)
         55337 MiB available memory on the node where the printing process lives
     GPU memory used/free/total (MiB): 6318 / 9962 / 16280
------------------
     ethr =  4.52E-09,  avg # of iterations =  2.8
     Minimization algorithm failed to find Fermi energy: reverting to bisection
     Possible cause: smearing is larger than the electronic band-gap.

     total cpu time spent up to now is      919.1 secs

     total energy              =    -420.23604771 Ry
     estimated scf accuracy    <       0.00000215 Ry

     total magnetization       =     2.01 Bohr mag/cell
     absolute magnetization    =     2.06 Bohr mag/cell
[tb_dev] Currently allocated     2.97E+01 Mbytes, locked:    0 /  12
[tb_pin] Currently allocated     0.00E+00 Mbytes, locked:    0 /   0

     iteration # 75     ecut=    90.00 Ry     beta= 0.40
     Davidson diagonalization with overlap

---- Real-time Memory Report at c_bands before calling an iterative solver
          4710 MiB given to the printing process from OS
          -366 MiB allocation reported by mallinfo(arena+hblkhd)
         55343 MiB available memory on the node where the printing process lives
     GPU memory used/free/total (MiB): 6318 / 9962 / 16280
------------------
     ethr =  4.52E-09,  avg # of iterations =  2.0
     Minimization algorithm failed to find Fermi energy: reverting to bisection
     Possible cause: smearing is larger than the electronic band-gap.

     total cpu time spent up to now is      932.1 secs

     total energy              =    -420.23604261 Ry
     estimated scf accuracy    <       0.00000156 Ry

     total magnetization       =     2.01 Bohr mag/cell
     absolute magnetization    =     2.06 Bohr mag/cell
[tb_dev] Currently allocated     2.97E+01 Mbytes, locked:    0 /  12
[tb_pin] Currently allocated     0.00E+00 Mbytes, locked:    0 /   0

     iteration # 76     ecut=    90.00 Ry     beta= 0.40
     Davidson diagonalization with overlap

---- Real-time Memory Report at c_bands before calling an iterative solver
          4721 MiB given to the printing process from OS
          -322 MiB allocation reported by mallinfo(arena+hblkhd)
         55318 MiB available memory on the node where the printing process lives
     GPU memory used/free/total (MiB): 6318 / 9962 / 16280
------------------
     ethr =  4.52E-09,  avg # of iterations =  2.2
     Minimization algorithm failed to find Fermi energy: reverting to bisection
     Possible cause: smearing is larger than the electronic band-gap.

     total cpu time spent up to now is      945.8 secs

     total energy              =    -420.23604500 Ry
     estimated scf accuracy    <       0.00000334 Ry

     total magnetization       =     2.02 Bohr mag/cell
     absolute magnetization    =     2.06 Bohr mag/cell
[tb_dev] Currently allocated     2.97E+01 Mbytes, locked:    0 /  12
[tb_pin] Currently allocated     0.00E+00 Mbytes, locked:    0 /   0

     iteration # 77     ecut=    90.00 Ry     beta= 0.40
     Davidson diagonalization with overlap

---- Real-time Memory Report at c_bands before calling an iterative solver
          4726 MiB given to the printing process from OS
          -358 MiB allocation reported by mallinfo(arena+hblkhd)
         55330 MiB available memory on the node where the printing process lives
     GPU memory used/free/total (MiB): 6318 / 9962 / 16280
------------------
     ethr =  4.52E-09,  avg # of iterations =  1.6
     Minimization algorithm failed to find Fermi energy: reverting to bisection
     Possible cause: smearing is larger than the electronic band-gap.

     total cpu time spent up to now is      957.9 secs

     total energy              =    -420.23604460 Ry
     estimated scf accuracy    <       0.00000524 Ry

     total magnetization       =     2.02 Bohr mag/cell
     absolute magnetization    =     2.06 Bohr mag/cell
[tb_dev] Currently allocated     2.97E+01 Mbytes, locked:    0 /  12
[tb_pin] Currently allocated     0.00E+00 Mbytes, locked:    0 /   0

     iteration # 78     ecut=    90.00 Ry     beta= 0.40
     Davidson diagonalization with overlap

---- Real-time Memory Report at c_bands before calling an iterative solver
          4730 MiB given to the printing process from OS
          -314 MiB allocation reported by mallinfo(arena+hblkhd)
         55311 MiB available memory on the node where the printing process lives
     GPU memory used/free/total (MiB): 6318 / 9962 / 16280
------------------
     ethr =  4.52E-09,  avg # of iterations =  1.0
     Minimization algorithm failed to find Fermi energy: reverting to bisection
     Possible cause: smearing is larger than the electronic band-gap.

     total cpu time spent up to now is      968.9 secs

     total energy              =    -420.23604209 Ry
     estimated scf accuracy    <       0.00000645 Ry

     total magnetization       =     2.02 Bohr mag/cell
     absolute magnetization    =     2.06 Bohr mag/cell
[tb_dev] Currently allocated     2.97E+01 Mbytes, locked:    0 /  12
[tb_pin] Currently allocated     0.00E+00 Mbytes, locked:    0 /   0

     iteration # 79     ecut=    90.00 Ry     beta= 0.40
     Davidson diagonalization with overlap

---- Real-time Memory Report at c_bands before calling an iterative solver
          4733 MiB given to the printing process from OS
          -350 MiB allocation reported by mallinfo(arena+hblkhd)
         55321 MiB available memory on the node where the printing process lives
     GPU memory used/free/total (MiB): 6318 / 9962 / 16280
------------------
     ethr =  4.52E-09,  avg # of iterations =  2.6
     Minimization algorithm failed to find Fermi energy: reverting to bisection
     Possible cause: smearing is larger than the electronic band-gap.

     total cpu time spent up to now is      983.5 secs

     total energy              =    -420.23605044 Ry
     estimated scf accuracy    <       0.00000210 Ry

     total magnetization       =     2.01 Bohr mag/cell
     absolute magnetization    =     2.06 Bohr mag/cell
[tb_dev] Currently allocated     2.97E+01 Mbytes, locked:    0 /  12
[tb_pin] Currently allocated     0.00E+00 Mbytes, locked:    0 /   0

     iteration # 80     ecut=    90.00 Ry     beta= 0.40
     Davidson diagonalization with overlap

---- Real-time Memory Report at c_bands before calling an iterative solver
          4738 MiB given to the printing process from OS
          -306 MiB allocation reported by mallinfo(arena+hblkhd)
         55305 MiB available memory on the node where the printing process lives
     GPU memory used/free/total (MiB): 6318 / 9962 / 16280
------------------
     ethr =  4.52E-09,  avg # of iterations =  2.6
     Minimization algorithm failed to find Fermi energy: reverting to bisection
     Possible cause: smearing is larger than the electronic band-gap.

     total cpu time spent up to now is      997.4 secs

     total energy              =    -420.23604671 Ry
     estimated scf accuracy    <       0.00000397 Ry

     total magnetization       =     2.02 Bohr mag/cell
     absolute magnetization    =     2.07 Bohr mag/cell

     End of self-consistent calculation

     convergence NOT achieved after  80 iterations: stopping

     Writing config to output data dir ./out/aiida.save/
 
     init_run     :     38.61s CPU     14.05s WALL (       1 calls)
     electrons    :   1886.44s CPU    983.13s WALL (       1 calls)

     Called by init_run:
     wfcinit      :      7.16s CPU      8.82s WALL (       1 calls)
                                        8.82s GPU  (       1 calls)
     wfcinit:atom :      0.07s CPU      0.26s WALL (     280 calls)
                                        0.26s GPU  (     280 calls)
     wfcinit:wfcr :      4.16s CPU      4.83s WALL (     280 calls)
                                        4.83s GPU  (     280 calls)
     potinit      :     16.69s CPU      1.56s WALL (       1 calls)
     hinit0       :      7.29s CPU      1.88s WALL (       1 calls)

     Called by electrons:
     c_bands      :    724.89s CPU    710.47s WALL (      80 calls)
     sum_band     :    169.66s CPU    175.24s WALL (      80 calls)
     v_of_rho     :     84.02s CPU     13.66s WALL (      81 calls)
     v_h          :     19.77s CPU      1.84s WALL (      81 calls)
     v_xc         :     64.24s CPU     11.83s WALL (      81 calls)
     newd         :    101.91s CPU      9.46s WALL (      81 calls)
                                        9.46s GPU  (      81 calls)
     PAW_pot      :    606.58s CPU     54.96s WALL (      81 calls)
     mix_rho      :    138.17s CPU     13.37s WALL (      80 calls)

     Called by c_bands:
     init_us_2    :     23.46s CPU     32.88s WALL (   45080 calls)
     init_us_2:gp :     22.65s CPU     32.13s WALL (   45080 calls)
     cegterg      :    605.81s CPU    580.90s WALL (   22400 calls)

     Called by sum_band:
     sum_band:wei :      1.30s CPU      1.31s WALL (      80 calls)
                                        1.30s GPU  (      80 calls)
     sum_band:loo :    152.53s CPU    157.99s WALL (      80 calls)
                                      157.99s GPU  (      80 calls)
     sum_band:buf :     45.99s CPU     46.85s WALL (   22400 calls)
                                       46.71s GPU  (   22400 calls)
     sum_band:ini :     10.32s CPU     11.27s WALL (   22400 calls)
                                       11.14s GPU  (   22400 calls)
     sum_band:cal :      0.76s CPU     22.20s WALL (   22400 calls)
                                        4.79s GPU  (   22400 calls)
     sum_band:bec :      2.04s CPU      2.32s WALL (   22400 calls)
                                        2.17s GPU  (   22400 calls)
     addusdens    :      7.75s CPU      7.84s WALL (      80 calls)
                                        7.84s GPU  (      80 calls)
     addusd:skk   :      0.01s CPU      0.02s WALL (      80 calls)
                                        0.01s GPU  (      80 calls)

     Called by *egterg:
     cdiaghg      :     52.07s CPU     53.32s WALL (   60072 calls)
                                       52.91s GPU  (   60072 calls)
     cegterg:over :     13.73s CPU     13.60s WALL (   37672 calls)
     cegterg:upda :     11.45s CPU     11.46s WALL (   37672 calls)
     cegterg:last :      7.30s CPU      7.31s WALL (   36004 calls)
     h_psi        :    478.10s CPU    455.80s WALL (   60352 calls)
                                      454.86s GPU  (   60352 calls)
     s_psi        :      5.66s CPU     12.12s WALL (   60352 calls)
                                       10.32s GPU  (   60352 calls)
     g_psi        :      0.29s CPU      2.16s WALL (   37672 calls)
                                        1.91s GPU  (   37672 calls)

     Called by h_psi:
     h_psi:calbec :      2.37s CPU     15.01s WALL (   60352 calls)
                                       14.64s GPU  (   60352 calls)
     vloc_psi     :    437.54s CPU    423.51s WALL (   60352 calls)
                                      423.12s GPU  (   60352 calls)
     add_vuspsi   :      4.71s CPU     10.90s WALL (   60352 calls)
                                       10.54s GPU  (   60352 calls)

     General routines
     calbec       :      2.34s CPU      2.34s WALL (   82752 calls)
     fft          :      8.57s CPU      1.81s WALL (    2023 calls)
                                        1.23s GPU  (    1861 calls)
     ffts         :      1.01s CPU      0.20s WALL (     322 calls)
                                        0.04s GPU  (     160 calls)
     fftw         :      3.08s CPU    368.46s WALL (  143664 calls)
                                      366.86s GPU  (  143664 calls)
     interpolate  :     28.30s CPU      2.47s WALL (     162 calls)
     davcio       :      0.05s CPU      1.27s WALL (     298 calls)
 
     Parallel routines

     PAW routines
     PAW_pot      :    606.58s CPU     54.96s WALL (      81 calls)
     PAW_symme    :      0.13s CPU      0.02s WALL (     161 calls)
 
     PWSCF        :  32m 7.69s CPU  16m39.16s WALL

 
   This run was terminated on:  18: 0:40  23Oct2023            

=------------------------------------------------------------------------------=
   JOB DONE.
=------------------------------------------------------------------------------=
