
     Program PWSCF v.7.2 starts on 28Nov2023 at 20:49: 7 
        Git branch: develop
        Last git commit: 9055681be6fc8200e6fffe76ed5fda34c2696339
        Last git commit date: Wed Nov 8 16:29:39 2023 +0000
        Last git commit subject: Merge branch 'calbec_fix' into 'develop'

     This program is part of the open-source Quantum ESPRESSO suite
     for quantum simulation of materials; please cite
         "P. Giannozzi et al., J. Phys.:Condens. Matter 21 395502 (2009);
         "P. Giannozzi et al., J. Phys.:Condens. Matter 29 465901 (2017);
         "P. Giannozzi et al., J. Chem. Phys. 152 154105 (2020);
          URL http://www.quantum-espresso.org", 
     in publications or presentations arising from this work. More details at
     http://www.quantum-espresso.org/quote

     Parallel version (MPI), running on    56 processors

     MPI processes distributed on     1 nodes
     489733 MiB available memory on the printing compute node when the environment starts

     Reading input from aiida.in

     Current dimensions of program PWSCF are:
     Max number of different atomic species (ntypx) = 10
     Max number of k-points (npk) =  40000
     Max angular momentum in pseudopotentials (lmaxx) =  4
     Message from routine setup:
     using ibrav=0 with symmetry is DISCOURAGED, use correct ibrav instead

     K-points division:     npool     =       8
     R & G space division:  proc/nbgrp/npool/nimage =       7
     Subspace diagonalization in iterative solution of the eigenvalue problem:
     a serial algorithm will be used


     Parallelization info
     --------------------
     sticks:   dense  smooth     PW     G-vecs:    dense   smooth      PW
     Min         503     252     71                22252     7880    1209
     Max         504     253     72                22255     7881    1210
     Sum        3527    1765    503               155771    55165    8467

     Using Slab Decomposition



     bravais-lattice index     =            0
     lattice parameter (alat)  =       9.6376  a.u.
     unit-cell volume          =     876.4758 (a.u.)^3
     number of atoms/cell      =            8
     number of atomic types    =            3
     number of electrons       =        62.00
     number of Kohn-Sham states=           37
     kinetic-energy cutoff     =      60.0000  Ry
     charge density cutoff     =     480.0000  Ry
     scf convergence threshold =      1.6E-09
     mixing beta               =       0.4000
     number of iterations used =            8  plain     mixing
     Exchange-correlation= SLA  PW   PSX  PSC
                           (   1   4  10   8   0   0   0)

     celldm(1)=   9.637619  celldm(2)=   0.000000  celldm(3)=   0.000000
     celldm(4)=   0.000000  celldm(5)=   0.000000  celldm(6)=   0.000000

     crystal axes: (cart. coord. in units of alat)
               a(1) = (   0.746058   0.430737   0.507803 )  
               a(2) = (  -0.746058   0.430737   0.507803 )  
               a(3) = (  -0.000000  -0.861473   0.507803 )  

     reciprocal axes: (cart. coord. in units 2 pi/alat)
               b(1) = (  0.670190  0.386934  0.656422 )  
               b(2) = ( -0.670190  0.386934  0.656422 )  
               b(3) = (  0.000000 -0.773868  0.656422 )  


     PseudoPot. # 1 for F  read from file:
     ./pseudo/f_pbesol_v1.4.uspp.F.UPF
     MD5 check sum: d2815ecb49b17b99c5724ffd2f9bbd8d
     Pseudo is Ultrasoft, Zval =  7.0
     Generated by new atomic code, or converted to UPF format
     Using radial grid of  799 points,  4 beta functions with: 
                l(1) =   0
                l(2) =   0
                l(3) =   1
                l(4) =   1
     Q(r) pseudized with  8 coefficients,  rinner =    0.950   0.950   0.950


     PseudoPot. # 2 for N  read from file:
     ./pseudo/N.pbesol-theos.UPF
     MD5 check sum: 1b64827339d390a5a22afef3ff345c9d
     Pseudo is Ultrasoft + core correction, Zval =  5.0
     Generated using "atomic" code by A. Dal Corso  v.5.1
     Using radial grid of 1085 points,  4 beta functions with: 
                l(1) =   0
                l(2) =   0
                l(3) =   1
                l(4) =   1
     Q(r) pseudized with 0 coefficients 


     PseudoPot. # 3 for Sb read from file:
     ./pseudo/sb_pbesol_v1.4.uspp.F.UPF
     MD5 check sum: b66a27f2c95be5fc87b0bb5ef8c6d7fd
     Pseudo is Ultrasoft + core correction, Zval = 15.0
     Generated by new atomic code, or converted to UPF format
     Using radial grid of  891 points,  6 beta functions with: 
                l(1) =   0
                l(2) =   0
                l(3) =   1
                l(4) =   1
                l(5) =   2
                l(6) =   2
     Q(r) pseudized with  8 coefficients,  rinner =    1.350   1.350   1.350
                                                       1.350   1.350

     atomic species   valence    mass     pseudopotential
     F                 7.00    18.99840     F ( 1.00)
     N                 5.00    14.00670     N ( 1.00)
     Sb               15.00   121.76000     Sb( 1.00)

     Starting magnetic structure 
     atomic species   magnetization
     F               0.100
     N               0.100
     Sb              0.100

     12 Sym. Ops., with inversion, found


                                    s                        frac. trans.

      isym =  1     identity                                     

 cryst.   s( 1) = (     1          0          0      )
                  (     0          1          0      )
                  (     0          0          1      )

 cart.    s( 1) = (  1.0000000  0.0000000 -0.0000000 )
                  (  0.0000000  1.0000000  0.0000000 )
                  ( -0.0000000  0.0000000  1.0000000 )


      isym =  2     180 deg rotation - cart. axis [1,0,0]        

 cryst.   s( 2) = (     0         -1          0      )
                  (    -1          0          0      )
                  (     0          0         -1      )

 cart.    s( 2) = (  1.0000000 -0.0000000  0.0000000 )
                  (  0.0000000 -1.0000000 -0.0000000 )
                  ( -0.0000000 -0.0000000 -1.0000000 )


      isym =  3     120 deg rotation - cryst. axis [0,0,1]       

 cryst.   s( 3) = (     0          1          0      )
                  (     0          0          1      )
                  (     1          0          0      )

 cart.    s( 3) = ( -0.5000000 -0.8660254 -0.0000000 )
                  (  0.8660254 -0.5000000 -0.0000000 )
                  ( -0.0000000 -0.0000000  1.0000000 )


      isym =  4     120 deg rotation - cryst. axis [0,0,-1]      

 cryst.   s( 4) = (     0          0          1      )
                  (     1          0          0      )
                  (     0          1          0      )

 cart.    s( 4) = ( -0.5000000  0.8660254  0.0000000 )
                  ( -0.8660254 -0.5000000 -0.0000000 )
                  (  0.0000000  0.0000000  1.0000000 )


      isym =  5     180 deg rotation - cryst. axis [0,1,0]       

 cryst.   s( 5) = (    -1          0          0      )
                  (     0          0         -1      )
                  (     0         -1          0      )

 cart.    s( 5) = ( -0.5000000 -0.8660254 -0.0000000 )
                  ( -0.8660254  0.5000000  0.0000000 )
                  (  0.0000000 -0.0000000 -1.0000000 )


      isym =  6     180 deg rotation - cryst. axis [1,1,0]       

 cryst.   s( 6) = (     0          0         -1      )
                  (     0         -1          0      )
                  (    -1          0          0      )

 cart.    s( 6) = ( -0.5000000  0.8660254  0.0000000 )
                  (  0.8660254  0.5000000  0.0000000 )
                  ( -0.0000000  0.0000000 -1.0000000 )


      isym =  7     inversion                                    

 cryst.   s( 7) = (    -1          0          0      )
                  (     0         -1          0      )
                  (     0          0         -1      )

 cart.    s( 7) = ( -1.0000000 -0.0000000  0.0000000 )
                  ( -0.0000000 -1.0000000 -0.0000000 )
                  (  0.0000000 -0.0000000 -1.0000000 )


      isym =  8     inv. 180 deg rotation - cart. axis [1,0,0]   

 cryst.   s( 8) = (     0          1          0      )
                  (     1          0          0      )
                  (     0          0          1      )

 cart.    s( 8) = ( -1.0000000  0.0000000 -0.0000000 )
                  ( -0.0000000  1.0000000  0.0000000 )
                  (  0.0000000  0.0000000  1.0000000 )


      isym =  9     inv. 120 deg rotation - cryst. axis [0,0,1]  

 cryst.   s( 9) = (     0         -1          0      )
                  (     0          0         -1      )
                  (    -1          0          0      )

 cart.    s( 9) = (  0.5000000  0.8660254  0.0000000 )
                  ( -0.8660254  0.5000000  0.0000000 )
                  (  0.0000000  0.0000000 -1.0000000 )


      isym = 10     inv. 120 deg rotation - cryst. axis [0,0,-1] 

 cryst.   s(10) = (     0          0         -1      )
                  (    -1          0          0      )
                  (     0         -1          0      )

 cart.    s(10) = (  0.5000000 -0.8660254 -0.0000000 )
                  (  0.8660254  0.5000000  0.0000000 )
                  ( -0.0000000 -0.0000000 -1.0000000 )


      isym = 11     inv. 180 deg rotation - cryst. axis [0,1,0]  

 cryst.   s(11) = (     1          0          0      )
                  (     0          0          1      )
                  (     0          1          0      )

 cart.    s(11) = (  0.5000000  0.8660254  0.0000000 )
                  (  0.8660254 -0.5000000 -0.0000000 )
                  ( -0.0000000  0.0000000  1.0000000 )


      isym = 12     inv. 180 deg rotation - cryst. axis [1,1,0]  

 cryst.   s(12) = (     0          0          1      )
                  (     0          1          0      )
                  (     1          0          0      )

 cart.    s(12) = (  0.5000000 -0.8660254 -0.0000000 )
                  ( -0.8660254 -0.5000000 -0.0000000 )
                  (  0.0000000 -0.0000000  1.0000000 )


   Cartesian axes

     site n.     atom                  positions (alat units)
         1        Sb     tau(   1) = (   0.0000000   0.0000000   0.0000000  )
         2        N      tau(   2) = (  -0.0000000   0.0000000   0.7617047  )
         3        F      tau(   3) = (   0.7460576   0.7139028   0.7240257  )
         4        F      tau(   4) = (   0.9912868   0.2891535   0.7240257  )
         5        F      tau(   5) = (   0.2452291   1.0030563   0.7993837  )
         6        F      tau(   6) = (  -0.2452291   1.0030563   0.7993837  )
         7        F      tau(   7) = (  -0.0000000   0.5783069   0.7993837  )
         8        F      tau(   8) = (   0.5008285   0.2891535   0.7240257  )

   Crystallographic axes

     site n.     atom                  positions (cryst. coord.)
         1        Sb     tau(   1) = (  0.0000000  0.0000000  0.0000000  )
         2        N      tau(   2) = (  0.5000000  0.5000000  0.5000000  )
         3        F      tau(   3) = (  1.2515000  0.2515000 -0.0772000  )
         4        F      tau(   4) = (  1.2515000 -0.0772000  0.2515000  )
         5        F      tau(   5) = (  1.0772000  0.7485000 -0.2515000  )
         6        F      tau(   6) = (  0.7485000  1.0772000 -0.2515000  )
         7        F      tau(   7) = (  0.7485000  0.7485000  0.0772000  )
         8        F      tau(   8) = (  0.9228000  0.2515000  0.2515000  )

     number of k points=    85  Marzari-Vanderbilt smearing, width (Ry)=  0.0200
                       cart. coord. in units 2pi/alat
        k(    1) = (   0.0000000   0.0000000   0.0000000), wk =   0.0013717
        k(    2) = (   0.0000000  -0.0859854   0.0729358), wk =   0.0082305
        k(    3) = (   0.0000000  -0.1719707   0.1458716), wk =   0.0082305
        k(    4) = (   0.0000000  -0.2579561   0.2188075), wk =   0.0082305
        k(    5) = (   0.0000000  -0.3439414   0.2917433), wk =   0.0082305
        k(    6) = (  -0.0744655  -0.0429927   0.1458716), wk =   0.0082305
        k(    7) = (  -0.0744655  -0.1289780   0.2188075), wk =   0.0164609
        k(    8) = (  -0.0744655  -0.2149634   0.2917433), wk =   0.0164609
        k(    9) = (  -0.0744655  -0.3009487   0.3646791), wk =   0.0164609
        k(   10) = (  -0.0744655   0.3869341  -0.2188075), wk =   0.0164609
        k(   11) = (  -0.0744655   0.3009487  -0.1458716), wk =   0.0164609
        k(   12) = (  -0.0744655   0.2149634  -0.0729358), wk =   0.0164609
        k(   13) = (  -0.0744655   0.1289780   0.0000000), wk =   0.0082305
        k(   14) = (  -0.1489310  -0.0859854   0.2917433), wk =   0.0082305
        k(   15) = (  -0.1489310  -0.1719707   0.3646791), wk =   0.0164609
        k(   16) = (  -0.1489310  -0.2579561   0.4376149), wk =   0.0164609
        k(   17) = (  -0.1489310   0.4299268  -0.1458716), wk =   0.0164609
        k(   18) = (  -0.1489310   0.3439414  -0.0729358), wk =   0.0164609
        k(   19) = (  -0.1489310   0.2579561   0.0000000), wk =   0.0082305
        k(   20) = (  -0.2233965  -0.1289780   0.4376149), wk =   0.0082305
        k(   21) = (  -0.2233965  -0.2149634   0.5105507), wk =   0.0164609
        k(   22) = (  -0.2233965   0.4729194  -0.0729358), wk =   0.0164609
        k(   23) = (  -0.2233965   0.3869341   0.0000000), wk =   0.0082305
        k(   24) = (  -0.2978620  -0.1719707   0.5834866), wk =   0.0082305
        k(   25) = (  -0.2978620   0.5159121   0.0000000), wk =   0.0082305
        k(   26) = (   0.0000000   0.0000000   0.2188075), wk =   0.0027435
        k(   27) = (   0.0000000  -0.0859854   0.2917433), wk =   0.0082305
        k(   28) = (   0.0000000  -0.1719707   0.3646791), wk =   0.0082305
        k(   29) = (   0.0000000  -0.2579561   0.4376149), wk =   0.0082305
        k(   30) = (  -0.0000000   0.4299268  -0.1458716), wk =   0.0082305
        k(   31) = (  -0.0000000   0.3439414  -0.0729358), wk =   0.0082305
        k(   32) = (  -0.0000000   0.2579561   0.0000000), wk =   0.0082305
        k(   33) = (  -0.0000000   0.1719707   0.0729358), wk =   0.0082305
        k(   34) = (  -0.0744655  -0.0429927   0.3646791), wk =   0.0082305
        k(   35) = (  -0.0744655  -0.1289780   0.4376149), wk =   0.0164609
        k(   36) = (  -0.0744655  -0.2149634   0.5105507), wk =   0.0164609
        k(   37) = (  -0.0744655   0.4729194  -0.0729358), wk =   0.0164609
        k(   38) = (  -0.0744655   0.3869341   0.0000000), wk =   0.0164609
        k(   39) = (  -0.0744655   0.3009487   0.0729358), wk =   0.0164609
        k(   40) = (  -0.0744655   0.2149634   0.1458716), wk =   0.0164609
        k(   41) = (  -0.1489310  -0.0859854   0.5105507), wk =   0.0082305
        k(   42) = (  -0.1489310  -0.1719707   0.5834866), wk =   0.0164609
        k(   43) = (  -0.1489310   0.5159121   0.0000000), wk =   0.0164609
        k(   44) = (  -0.1489310   0.4299268   0.0729358), wk =   0.0164609
        k(   45) = (  -0.1489310   0.3439414   0.1458716), wk =   0.0164609
        k(   46) = (  -0.1489310   0.2579561   0.2188075), wk =   0.0164609
        k(   47) = (  -0.2233965  -0.1289780   0.6564224), wk =   0.0082305
        k(   48) = (  -0.2233965   0.5589048   0.0729358), wk =   0.0164609
        k(   49) = (  -0.2233965   0.4729194   0.1458716), wk =   0.0164609
        k(   50) = (  -0.2233965   0.3869341   0.2188075), wk =   0.0164609
        k(   51) = (  -0.2233965   0.3009487   0.2917433), wk =   0.0164609
        k(   52) = (   0.3723275   0.2149634  -0.5105507), wk =   0.0082305
        k(   53) = (   0.3723275   0.1289780  -0.4376149), wk =   0.0164609
        k(   54) = (   0.3723275   0.0429927  -0.3646791), wk =   0.0164609
        k(   55) = (   0.2978620   0.1719707  -0.3646791), wk =   0.0082305
        k(   56) = (   0.2978620   0.0859854  -0.2917433), wk =   0.0164609
        k(   57) = (   0.2233965   0.1289780  -0.2188075), wk =   0.0082305
        k(   58) = (   0.0000000   0.0000000   0.4376149), wk =   0.0027435
        k(   59) = (   0.0000000  -0.0859854   0.5105507), wk =   0.0082305
        k(   60) = (   0.0000000  -0.1719707   0.5834866), wk =   0.0082305
        k(   61) = (  -0.0000000   0.5159121   0.0000000), wk =   0.0082305
        k(   62) = (  -0.0000000   0.4299268   0.0729358), wk =   0.0082305
        k(   63) = (  -0.0000000   0.3439414   0.1458716), wk =   0.0082305
        k(   64) = (  -0.0744655  -0.0429927   0.5834866), wk =   0.0082305
        k(   65) = (  -0.0744655  -0.1289780   0.6564224), wk =   0.0164609
        k(   66) = (  -0.0744655   0.5589048   0.0729358), wk =   0.0164609
        k(   67) = (  -0.0744655   0.4729194   0.1458716), wk =   0.0164609
        k(   68) = (  -0.0744655   0.3869341   0.2188075), wk =   0.0164609
        k(   69) = (  -0.1489310  -0.0859854   0.7293582), wk =   0.0082305
        k(   70) = (  -0.1489310   0.6018975   0.1458716), wk =   0.0164609
        k(   71) = (  -0.1489310   0.5159121   0.2188075), wk =   0.0164609
        k(   72) = (  -0.1489310   0.4299268   0.2917433), wk =   0.0164609
        k(   73) = (   0.4467930   0.2579561  -0.4376149), wk =   0.0082305
        k(   74) = (   0.4467930   0.1719707  -0.3646791), wk =   0.0164609
        k(   75) = (   0.3723275   0.2149634  -0.2917433), wk =   0.0082305
        k(   76) = (  -0.0000000  -0.0000000   0.6564224), wk =   0.0027435
        k(   77) = (  -0.0000000  -0.0859854   0.7293582), wk =   0.0082305
        k(   78) = (  -0.0000000   0.6018975   0.1458716), wk =   0.0082305
        k(   79) = (  -0.0000000   0.5159121   0.2188075), wk =   0.0082305
        k(   80) = (  -0.0744655  -0.0429927   0.8022940), wk =   0.0082305
        k(   81) = (  -0.0744655   0.6448902   0.2188075), wk =   0.0164609
        k(   82) = (  -0.0744655   0.5589048   0.2917433), wk =   0.0164609
        k(   83) = (   0.5212585   0.3009487  -0.3646791), wk =   0.0082305
        k(   84) = (   0.0000000   0.0000000   0.8752299), wk =   0.0027435
        k(   85) = (  -0.0000000   0.6878828   0.2917433), wk =   0.0082305

                       cryst. coord.
        k(    1) = (   0.0000000   0.0000000   0.0000000), wk =   0.0013717
        k(    2) = (  -0.0000000  -0.0000000   0.1111111), wk =   0.0082305
        k(    3) = (  -0.0000000  -0.0000000   0.2222222), wk =   0.0082305
        k(    4) = (   0.0000000   0.0000000   0.3333333), wk =   0.0082305
        k(    5) = (  -0.0000000  -0.0000000   0.4444444), wk =   0.0082305
        k(    6) = (  -0.0000000   0.1111111   0.1111111), wk =   0.0082305
        k(    7) = (   0.0000000   0.1111111   0.2222222), wk =   0.0164609
        k(    8) = (   0.0000000   0.1111111   0.3333333), wk =   0.0164609
        k(    9) = (  -0.0000000   0.1111111   0.4444444), wk =   0.0164609
        k(   10) = (   0.0000000   0.1111111  -0.4444444), wk =   0.0164609
        k(   11) = (   0.0000000   0.1111111  -0.3333333), wk =   0.0164609
        k(   12) = (   0.0000000   0.1111111  -0.2222222), wk =   0.0164609
        k(   13) = (   0.0000000   0.1111111  -0.1111111), wk =   0.0082305
        k(   14) = (  -0.0000000   0.2222222   0.2222222), wk =   0.0082305
        k(   15) = (  -0.0000000   0.2222222   0.3333333), wk =   0.0164609
        k(   16) = (   0.0000000   0.2222222   0.4444444), wk =   0.0164609
        k(   17) = (   0.0000000   0.2222222  -0.4444444), wk =   0.0164609
        k(   18) = (   0.0000000   0.2222222  -0.3333333), wk =   0.0164609
        k(   19) = (   0.0000000   0.2222222  -0.2222222), wk =   0.0082305
        k(   20) = (  -0.0000000   0.3333333   0.3333333), wk =   0.0082305
        k(   21) = (   0.0000000   0.3333333   0.4444444), wk =   0.0164609
        k(   22) = (   0.0000000   0.3333333  -0.4444444), wk =   0.0164609
        k(   23) = (   0.0000000   0.3333333  -0.3333333), wk =   0.0082305
        k(   24) = (  -0.0000000   0.4444444   0.4444444), wk =   0.0082305
        k(   25) = (   0.0000000   0.4444444  -0.4444444), wk =   0.0082305
        k(   26) = (   0.1111111   0.1111111   0.1111111), wk =   0.0027435
        k(   27) = (   0.1111111   0.1111111   0.2222222), wk =   0.0082305
        k(   28) = (   0.1111111   0.1111111   0.3333333), wk =   0.0082305
        k(   29) = (   0.1111111   0.1111111   0.4444444), wk =   0.0082305
        k(   30) = (   0.1111111   0.1111111  -0.4444444), wk =   0.0082305
        k(   31) = (   0.1111111   0.1111111  -0.3333333), wk =   0.0082305
        k(   32) = (   0.1111111   0.1111111  -0.2222222), wk =   0.0082305
        k(   33) = (   0.1111111   0.1111111  -0.1111111), wk =   0.0082305
        k(   34) = (   0.1111111   0.2222222   0.2222222), wk =   0.0082305
        k(   35) = (   0.1111111   0.2222222   0.3333333), wk =   0.0164609
        k(   36) = (   0.1111111   0.2222222   0.4444444), wk =   0.0164609
        k(   37) = (   0.1111111   0.2222222  -0.4444444), wk =   0.0164609
        k(   38) = (   0.1111111   0.2222222  -0.3333333), wk =   0.0164609
        k(   39) = (   0.1111111   0.2222222  -0.2222222), wk =   0.0164609
        k(   40) = (   0.1111111   0.2222222  -0.1111111), wk =   0.0164609
        k(   41) = (   0.1111111   0.3333333   0.3333333), wk =   0.0082305
        k(   42) = (   0.1111111   0.3333333   0.4444444), wk =   0.0164609
        k(   43) = (   0.1111111   0.3333333  -0.4444444), wk =   0.0164609
        k(   44) = (   0.1111111   0.3333333  -0.3333333), wk =   0.0164609
        k(   45) = (   0.1111111   0.3333333  -0.2222222), wk =   0.0164609
        k(   46) = (   0.1111111   0.3333333  -0.1111111), wk =   0.0164609
        k(   47) = (   0.1111111   0.4444444   0.4444444), wk =   0.0082305
        k(   48) = (   0.1111111   0.4444444  -0.4444444), wk =   0.0164609
        k(   49) = (   0.1111111   0.4444444  -0.3333333), wk =   0.0164609
        k(   50) = (   0.1111111   0.4444444  -0.2222222), wk =   0.0164609
        k(   51) = (   0.1111111   0.4444444  -0.1111111), wk =   0.0164609
        k(   52) = (   0.1111111  -0.4444444  -0.4444444), wk =   0.0082305
        k(   53) = (   0.1111111  -0.4444444  -0.3333333), wk =   0.0164609
        k(   54) = (   0.1111111  -0.4444444  -0.2222222), wk =   0.0164609
        k(   55) = (   0.1111111  -0.3333333  -0.3333333), wk =   0.0082305
        k(   56) = (   0.1111111  -0.3333333  -0.2222222), wk =   0.0164609
        k(   57) = (   0.1111111  -0.2222222  -0.2222222), wk =   0.0082305
        k(   58) = (   0.2222222   0.2222222   0.2222222), wk =   0.0027435
        k(   59) = (   0.2222222   0.2222222   0.3333333), wk =   0.0082305
        k(   60) = (   0.2222222   0.2222222   0.4444444), wk =   0.0082305
        k(   61) = (   0.2222222   0.2222222  -0.4444444), wk =   0.0082305
        k(   62) = (   0.2222222   0.2222222  -0.3333333), wk =   0.0082305
        k(   63) = (   0.2222222   0.2222222  -0.2222222), wk =   0.0082305
        k(   64) = (   0.2222222   0.3333333   0.3333333), wk =   0.0082305
        k(   65) = (   0.2222222   0.3333333   0.4444444), wk =   0.0164609
        k(   66) = (   0.2222222   0.3333333  -0.4444444), wk =   0.0164609
        k(   67) = (   0.2222222   0.3333333  -0.3333333), wk =   0.0164609
        k(   68) = (   0.2222222   0.3333333  -0.2222222), wk =   0.0164609
        k(   69) = (   0.2222222   0.4444444   0.4444444), wk =   0.0082305
        k(   70) = (   0.2222222   0.4444444  -0.4444444), wk =   0.0164609
        k(   71) = (   0.2222222   0.4444444  -0.3333333), wk =   0.0164609
        k(   72) = (   0.2222222   0.4444444  -0.2222222), wk =   0.0164609
        k(   73) = (   0.2222222  -0.4444444  -0.4444444), wk =   0.0082305
        k(   74) = (   0.2222222  -0.4444444  -0.3333333), wk =   0.0164609
        k(   75) = (   0.2222222  -0.3333333  -0.3333333), wk =   0.0082305
        k(   76) = (   0.3333333   0.3333333   0.3333333), wk =   0.0027435
        k(   77) = (   0.3333333   0.3333333   0.4444444), wk =   0.0082305
        k(   78) = (   0.3333333   0.3333333  -0.4444444), wk =   0.0082305
        k(   79) = (   0.3333333   0.3333333  -0.3333333), wk =   0.0082305
        k(   80) = (   0.3333333   0.4444444   0.4444444), wk =   0.0082305
        k(   81) = (   0.3333333   0.4444444  -0.4444444), wk =   0.0164609
        k(   82) = (   0.3333333   0.4444444  -0.3333333), wk =   0.0164609
        k(   83) = (   0.3333333  -0.4444444  -0.4444444), wk =   0.0082305
        k(   84) = (   0.4444444   0.4444444   0.4444444), wk =   0.0027435
        k(   85) = (   0.4444444   0.4444444  -0.4444444), wk =   0.0082305

     Dense  grid:   155771 G-vectors     FFT dimensions: (  72,  72,  72)

     Smooth grid:    55165 G-vectors     FFT dimensions: (  48,  48,  48)

     Dynamical RAM for                 wfc:       0.55 MB

     Dynamical RAM for     wfc (w. buffer):      12.75 MB

     Dynamical RAM for           str. fact:       1.02 MB

     Dynamical RAM for           local pot:       0.00 MB

     Dynamical RAM for          nlocal pot:       1.11 MB

     Dynamical RAM for                qrad:       5.27 MB

     Dynamical RAM for          rho,v,vnew:       4.65 MB

     Dynamical RAM for               rhoin:       1.55 MB

     Dynamical RAM for            rho*nmix:      10.87 MB

     Dynamical RAM for           G-vectors:       1.33 MB

     Dynamical RAM for          h,s,v(r/c):       0.25 MB

     Dynamical RAM for          <psi|beta>:       0.04 MB

     Dynamical RAM for                 psi:       1.11 MB

     Dynamical RAM for                hpsi:       1.11 MB

     Dynamical RAM for                spsi:       1.11 MB

     Dynamical RAM for      wfcinit/wfcrot:       1.14 MB

     Dynamical RAM for           addusdens:       8.78 MB

     Dynamical RAM for          addusforce:       8.96 MB

     Dynamical RAM for         addusstress:       8.89 MB

     Estimated static dynamical RAM per process >      31.65 MB

     Estimated max dynamical RAM per process >      51.47 MB

     Estimated total dynamical RAM >       2.30 GB

     Check: negative core charge=   -0.000001
     Generating pointlists ...
     new r_m :   0.1470 (alat units)  1.4164 (a.u.) for type    1
     new r_m :   0.2391 (alat units)  2.3039 (a.u.) for type    2
     new r_m :   0.1470 (alat units)  1.4164 (a.u.) for type    3

     Initial potential from superposition of free atoms

     starting charge      61.0000, renormalised to      62.0000
     Starting wfcs are   37 randomized atomic wfcs

     total cpu time spent up to now is        2.3 secs

     per-process dynamical memory:    42.0 Mb

     Self-consistent Calculation

     iteration #  1     ecut=    60.00 Ry     beta= 0.40
     Davidson diagonalization with overlap

---- Real-time Memory Report at c_bands before calling an iterative solver
            77 MiB given to the printing process from OS
            41 MiB allocation reported by mallinfo(arena+hblkhd)
        487665 MiB available memory on the node where the printing process lives
------------------
     ethr =  1.00E-02,  avg # of iterations =  4.5

     total cpu time spent up to now is        4.3 secs

     total energy              =    -495.01124648 Ry
     estimated scf accuracy    <       1.22538407 Ry

     total magnetization       =     2.00 Bohr mag/cell
     absolute magnetization    =     2.40 Bohr mag/cell

     iteration #  2     ecut=    60.00 Ry     beta= 0.40
     Davidson diagonalization with overlap

---- Real-time Memory Report at c_bands before calling an iterative solver
            94 MiB given to the printing process from OS
            56 MiB allocation reported by mallinfo(arena+hblkhd)
        486899 MiB available memory on the node where the printing process lives
------------------
     ethr =  1.98E-03,  avg # of iterations =  2.0

     total cpu time spent up to now is        5.9 secs

     total energy              =    -494.68829661 Ry
     estimated scf accuracy    <       2.95005947 Ry

     total magnetization       =     4.29 Bohr mag/cell
     absolute magnetization    =     4.34 Bohr mag/cell

     iteration #  3     ecut=    60.00 Ry     beta= 0.40
     Davidson diagonalization with overlap

---- Real-time Memory Report at c_bands before calling an iterative solver
            95 MiB given to the printing process from OS
            56 MiB allocation reported by mallinfo(arena+hblkhd)
        486882 MiB available memory on the node where the printing process lives
------------------
     ethr =  1.98E-03,  avg # of iterations =  2.0

     total cpu time spent up to now is        7.3 secs

     total energy              =    -495.35460823 Ry
     estimated scf accuracy    <       0.47248777 Ry

     total magnetization       =     2.00 Bohr mag/cell
     absolute magnetization    =     2.32 Bohr mag/cell

     iteration #  4     ecut=    60.00 Ry     beta= 0.40
     Davidson diagonalization with overlap

---- Real-time Memory Report at c_bands before calling an iterative solver
            96 MiB given to the printing process from OS
            57 MiB allocation reported by mallinfo(arena+hblkhd)
        486865 MiB available memory on the node where the printing process lives
------------------
     ethr =  7.62E-04,  avg # of iterations =  1.0

     total cpu time spent up to now is        8.5 secs

     total energy              =    -495.27354273 Ry
     estimated scf accuracy    <       0.28854163 Ry

     total magnetization       =     2.00 Bohr mag/cell
     absolute magnetization    =     2.27 Bohr mag/cell

     iteration #  5     ecut=    60.00 Ry     beta= 0.40
     Davidson diagonalization with overlap

---- Real-time Memory Report at c_bands before calling an iterative solver
            96 MiB given to the printing process from OS
            57 MiB allocation reported by mallinfo(arena+hblkhd)
        486848 MiB available memory on the node where the printing process lives
------------------
     ethr =  4.65E-04,  avg # of iterations =  2.0

     total cpu time spent up to now is       10.0 secs

     total energy              =    -495.40455346 Ry
     estimated scf accuracy    <       0.30345249 Ry

     total magnetization       =     4.00 Bohr mag/cell
     absolute magnetization    =     4.03 Bohr mag/cell

     iteration #  6     ecut=    60.00 Ry     beta= 0.40
     Davidson diagonalization with overlap

---- Real-time Memory Report at c_bands before calling an iterative solver
            97 MiB given to the printing process from OS
            58 MiB allocation reported by mallinfo(arena+hblkhd)
        486833 MiB available memory on the node where the printing process lives
------------------
     ethr =  4.65E-04,  avg # of iterations =  1.0

     total cpu time spent up to now is       11.2 secs

     total energy              =    -495.39295259 Ry
     estimated scf accuracy    <       0.33605782 Ry

     total magnetization       =     4.00 Bohr mag/cell
     absolute magnetization    =     4.03 Bohr mag/cell

     iteration #  7     ecut=    60.00 Ry     beta= 0.40
     Davidson diagonalization with overlap

---- Real-time Memory Report at c_bands before calling an iterative solver
            98 MiB given to the printing process from OS
            58 MiB allocation reported by mallinfo(arena+hblkhd)
        486824 MiB available memory on the node where the printing process lives
------------------
     ethr =  4.65E-04,  avg # of iterations =  1.0

     total cpu time spent up to now is       12.5 secs

     total energy              =    -495.37417492 Ry
     estimated scf accuracy    <       0.25620931 Ry

     total magnetization       =     4.08 Bohr mag/cell
     absolute magnetization    =     4.11 Bohr mag/cell

     iteration #  8     ecut=    60.00 Ry     beta= 0.40
     Davidson diagonalization with overlap

---- Real-time Memory Report at c_bands before calling an iterative solver
            99 MiB given to the printing process from OS
            59 MiB allocation reported by mallinfo(arena+hblkhd)
        486815 MiB available memory on the node where the printing process lives
------------------
     ethr =  4.13E-04,  avg # of iterations =  1.0

     total cpu time spent up to now is       13.7 secs

     total energy              =    -495.35217660 Ry
     estimated scf accuracy    <       0.17671854 Ry

     total magnetization       =     4.24 Bohr mag/cell
     absolute magnetization    =     4.27 Bohr mag/cell

     iteration #  9     ecut=    60.00 Ry     beta= 0.40
     Davidson diagonalization with overlap

---- Real-time Memory Report at c_bands before calling an iterative solver
           100 MiB given to the printing process from OS
            59 MiB allocation reported by mallinfo(arena+hblkhd)
        486801 MiB available memory on the node where the printing process lives
------------------
     ethr =  2.85E-04,  avg # of iterations =  1.0

     total cpu time spent up to now is       15.0 secs

     total energy              =    -495.35187249 Ry
     estimated scf accuracy    <       0.01849805 Ry

     total magnetization       =     3.59 Bohr mag/cell
     absolute magnetization    =     3.64 Bohr mag/cell

     iteration # 10     ecut=    60.00 Ry     beta= 0.40
     Davidson diagonalization with overlap

---- Real-time Memory Report at c_bands before calling an iterative solver
           100 MiB given to the printing process from OS
            60 MiB allocation reported by mallinfo(arena+hblkhd)
        486781 MiB available memory on the node where the printing process lives
------------------
     ethr =  2.98E-05,  avg # of iterations =  2.3

     total cpu time spent up to now is       16.4 secs

     total energy              =    -495.35652383 Ry
     estimated scf accuracy    <       0.06070707 Ry

     total magnetization       =     2.53 Bohr mag/cell
     absolute magnetization    =     2.65 Bohr mag/cell

     iteration # 11     ecut=    60.00 Ry     beta= 0.40
     Davidson diagonalization with overlap

---- Real-time Memory Report at c_bands before calling an iterative solver
           101 MiB given to the printing process from OS
            60 MiB allocation reported by mallinfo(arena+hblkhd)
        486768 MiB available memory on the node where the printing process lives
------------------
     ethr =  2.98E-05,  avg # of iterations =  1.0

     total cpu time spent up to now is       17.6 secs

     total energy              =    -495.34712266 Ry
     estimated scf accuracy    <       0.12237134 Ry

     total magnetization       =     2.24 Bohr mag/cell
     absolute magnetization    =     2.41 Bohr mag/cell

     iteration # 12     ecut=    60.00 Ry     beta= 0.40
     Davidson diagonalization with overlap

---- Real-time Memory Report at c_bands before calling an iterative solver
           101 MiB given to the printing process from OS
            60 MiB allocation reported by mallinfo(arena+hblkhd)
        486783 MiB available memory on the node where the printing process lives
------------------
     ethr =  2.98E-05,  avg # of iterations =  1.7

     total cpu time spent up to now is       19.0 secs

     total energy              =    -495.35752435 Ry
     estimated scf accuracy    <       0.04484922 Ry

     total magnetization       =     3.75 Bohr mag/cell
     absolute magnetization    =     3.79 Bohr mag/cell

     iteration # 13     ecut=    60.00 Ry     beta= 0.40
     Davidson diagonalization with overlap

---- Real-time Memory Report at c_bands before calling an iterative solver
           101 MiB given to the printing process from OS
            60 MiB allocation reported by mallinfo(arena+hblkhd)
        486782 MiB available memory on the node where the printing process lives
------------------
     ethr =  2.98E-05,  avg # of iterations =  1.0

     total cpu time spent up to now is       20.2 secs

     total energy              =    -495.36958790 Ry
     estimated scf accuracy    <       0.09146016 Ry

     total magnetization       =     3.83 Bohr mag/cell
     absolute magnetization    =     3.86 Bohr mag/cell

     iteration # 14     ecut=    60.00 Ry     beta= 0.40
     Davidson diagonalization with overlap

---- Real-time Memory Report at c_bands before calling an iterative solver
           101 MiB given to the printing process from OS
            60 MiB allocation reported by mallinfo(arena+hblkhd)
        486776 MiB available memory on the node where the printing process lives
------------------
     ethr =  2.98E-05,  avg # of iterations =  2.0

     total cpu time spent up to now is       21.6 secs

     total energy              =    -495.36939724 Ry
     estimated scf accuracy    <       0.14696190 Ry

     total magnetization       =     4.07 Bohr mag/cell
     absolute magnetization    =     4.10 Bohr mag/cell

     iteration # 15     ecut=    60.00 Ry     beta= 0.40
     Davidson diagonalization with overlap

---- Real-time Memory Report at c_bands before calling an iterative solver
           101 MiB given to the printing process from OS
            60 MiB allocation reported by mallinfo(arena+hblkhd)
        486768 MiB available memory on the node where the printing process lives
------------------
     ethr =  2.98E-05,  avg # of iterations =  2.0

     total cpu time spent up to now is       23.2 secs

     total energy              =    -495.36790247 Ry
     estimated scf accuracy    <       0.19701215 Ry

     total magnetization       =     1.65 Bohr mag/cell
     absolute magnetization    =     4.17 Bohr mag/cell

     iteration # 16     ecut=    60.00 Ry     beta= 0.40
     Davidson diagonalization with overlap

---- Real-time Memory Report at c_bands before calling an iterative solver
           102 MiB given to the printing process from OS
            60 MiB allocation reported by mallinfo(arena+hblkhd)
        486761 MiB available memory on the node where the printing process lives
------------------
     ethr =  2.98E-05,  avg # of iterations =  2.0

     total cpu time spent up to now is       24.6 secs

     total energy              =    -495.35278094 Ry
     estimated scf accuracy    <       0.15135955 Ry

     total magnetization       =     3.08 Bohr mag/cell
     absolute magnetization    =     3.10 Bohr mag/cell

     iteration # 17     ecut=    60.00 Ry     beta= 0.40
     Davidson diagonalization with overlap

---- Real-time Memory Report at c_bands before calling an iterative solver
           102 MiB given to the printing process from OS
            60 MiB allocation reported by mallinfo(arena+hblkhd)
        486757 MiB available memory on the node where the printing process lives
------------------
     ethr =  2.98E-05,  avg # of iterations =  2.0

     total cpu time spent up to now is       26.0 secs

     total energy              =    -495.35620332 Ry
     estimated scf accuracy    <       0.05142725 Ry

     total magnetization       =     3.54 Bohr mag/cell
     absolute magnetization    =     3.57 Bohr mag/cell

     iteration # 18     ecut=    60.00 Ry     beta= 0.40
     Davidson diagonalization with overlap

---- Real-time Memory Report at c_bands before calling an iterative solver
           102 MiB given to the printing process from OS
            60 MiB allocation reported by mallinfo(arena+hblkhd)
        486755 MiB available memory on the node where the printing process lives
------------------
     ethr =  2.98E-05,  avg # of iterations =  1.0

     total cpu time spent up to now is       27.2 secs

     total energy              =    -495.35792399 Ry
     estimated scf accuracy    <       0.08787030 Ry

     total magnetization       =     4.07 Bohr mag/cell
     absolute magnetization    =     4.11 Bohr mag/cell

     iteration # 19     ecut=    60.00 Ry     beta= 0.40
     Davidson diagonalization with overlap

---- Real-time Memory Report at c_bands before calling an iterative solver
           102 MiB given to the printing process from OS
            60 MiB allocation reported by mallinfo(arena+hblkhd)
        486753 MiB available memory on the node where the printing process lives
------------------
     ethr =  2.98E-05,  avg # of iterations =  1.0

     total cpu time spent up to now is       28.5 secs

     total energy              =    -495.35867906 Ry
     estimated scf accuracy    <       0.16677804 Ry

     total magnetization       =     4.43 Bohr mag/cell
     absolute magnetization    =     4.51 Bohr mag/cell

     iteration # 20     ecut=    60.00 Ry     beta= 0.40
     Davidson diagonalization with overlap

---- Real-time Memory Report at c_bands before calling an iterative solver
           102 MiB given to the printing process from OS
            60 MiB allocation reported by mallinfo(arena+hblkhd)
        486752 MiB available memory on the node where the printing process lives
------------------
     ethr =  2.98E-05,  avg # of iterations =  1.0

     total cpu time spent up to now is       29.7 secs

     total energy              =    -495.32492137 Ry
     estimated scf accuracy    <       0.13381267 Ry

     total magnetization       =     4.35 Bohr mag/cell
     absolute magnetization    =     4.40 Bohr mag/cell

     iteration # 21     ecut=    60.00 Ry     beta= 0.40
     Davidson diagonalization with overlap

---- Real-time Memory Report at c_bands before calling an iterative solver
           102 MiB given to the printing process from OS
            60 MiB allocation reported by mallinfo(arena+hblkhd)
        486750 MiB available memory on the node where the printing process lives
------------------
     ethr =  2.98E-05,  avg # of iterations =  2.0

     total cpu time spent up to now is       31.3 secs

     total energy              =    -495.35680818 Ry
     estimated scf accuracy    <       0.03290130 Ry

     total magnetization       =     1.69 Bohr mag/cell
     absolute magnetization    =     3.03 Bohr mag/cell

     iteration # 22     ecut=    60.00 Ry     beta= 0.40
     Davidson diagonalization with overlap

---- Real-time Memory Report at c_bands before calling an iterative solver
           102 MiB given to the printing process from OS
            60 MiB allocation reported by mallinfo(arena+hblkhd)
        486747 MiB available memory on the node where the printing process lives
------------------
     ethr =  2.98E-05,  avg # of iterations =  1.5

     total cpu time spent up to now is       32.6 secs

     total energy              =    -495.34543214 Ry
     estimated scf accuracy    <       0.15396154 Ry

     total magnetization       =     1.80 Bohr mag/cell
     absolute magnetization    =     2.36 Bohr mag/cell

     iteration # 23     ecut=    60.00 Ry     beta= 0.40
     Davidson diagonalization with overlap

---- Real-time Memory Report at c_bands before calling an iterative solver
           102 MiB given to the printing process from OS
            60 MiB allocation reported by mallinfo(arena+hblkhd)
        486740 MiB available memory on the node where the printing process lives
------------------
     ethr =  2.98E-05,  avg # of iterations =  1.1

     total cpu time spent up to now is       33.9 secs

     total energy              =    -495.35184787 Ry
     estimated scf accuracy    <       0.01363724 Ry

     total magnetization       =     3.46 Bohr mag/cell
     absolute magnetization    =     3.49 Bohr mag/cell

     iteration # 24     ecut=    60.00 Ry     beta= 0.40
     Davidson diagonalization with overlap

---- Real-time Memory Report at c_bands before calling an iterative solver
           102 MiB given to the printing process from OS
            60 MiB allocation reported by mallinfo(arena+hblkhd)
        486740 MiB available memory on the node where the printing process lives
------------------
     ethr =  2.20E-05,  avg # of iterations =  1.5

     total cpu time spent up to now is       35.3 secs

     total energy              =    -495.35454155 Ry
     estimated scf accuracy    <       0.00214961 Ry

     total magnetization       =     2.50 Bohr mag/cell
     absolute magnetization    =     2.74 Bohr mag/cell

     iteration # 25     ecut=    60.00 Ry     beta= 0.40
     Davidson diagonalization with overlap

---- Real-time Memory Report at c_bands before calling an iterative solver
           102 MiB given to the printing process from OS
            60 MiB allocation reported by mallinfo(arena+hblkhd)
        486738 MiB available memory on the node where the printing process lives
------------------
     ethr =  3.47E-06,  avg # of iterations =  1.3

     total cpu time spent up to now is       36.6 secs

     total energy              =    -495.35474151 Ry
     estimated scf accuracy    <       0.00023982 Ry

     total magnetization       =     2.76 Bohr mag/cell
     absolute magnetization    =     2.86 Bohr mag/cell

     iteration # 26     ecut=    60.00 Ry     beta= 0.40
     Davidson diagonalization with overlap

---- Real-time Memory Report at c_bands before calling an iterative solver
           102 MiB given to the printing process from OS
            60 MiB allocation reported by mallinfo(arena+hblkhd)
        486737 MiB available memory on the node where the printing process lives
------------------
     ethr =  3.87E-07,  avg # of iterations =  2.1

     total cpu time spent up to now is       38.1 secs

     total energy              =    -495.35508482 Ry
     estimated scf accuracy    <       0.00024186 Ry

     total magnetization       =     2.46 Bohr mag/cell
     absolute magnetization    =     2.80 Bohr mag/cell

     iteration # 27     ecut=    60.00 Ry     beta= 0.40
     Davidson diagonalization with overlap

---- Real-time Memory Report at c_bands before calling an iterative solver
           103 MiB given to the printing process from OS
            60 MiB allocation reported by mallinfo(arena+hblkhd)
        486735 MiB available memory on the node where the printing process lives
------------------
     ethr =  3.87E-07,  avg # of iterations =  2.0

     total cpu time spent up to now is       39.8 secs

     total energy              =    -495.35548987 Ry
     estimated scf accuracy    <       0.00108127 Ry

     total magnetization       =     2.00 Bohr mag/cell
     absolute magnetization    =     3.13 Bohr mag/cell

     iteration # 28     ecut=    60.00 Ry     beta= 0.40
     Davidson diagonalization with overlap

---- Real-time Memory Report at c_bands before calling an iterative solver
           103 MiB given to the printing process from OS
            60 MiB allocation reported by mallinfo(arena+hblkhd)
        486734 MiB available memory on the node where the printing process lives
------------------
     ethr =  3.87E-07,  avg # of iterations =  2.0

     total cpu time spent up to now is       41.2 secs

     total energy              =    -495.35277649 Ry
     estimated scf accuracy    <       0.00059837 Ry

     total magnetization       =     2.18 Bohr mag/cell
     absolute magnetization    =     2.92 Bohr mag/cell

     iteration # 29     ecut=    60.00 Ry     beta= 0.40
     Davidson diagonalization with overlap

---- Real-time Memory Report at c_bands before calling an iterative solver
           103 MiB given to the printing process from OS
            60 MiB allocation reported by mallinfo(arena+hblkhd)
        486725 MiB available memory on the node where the printing process lives
------------------
     ethr =  3.87E-07,  avg # of iterations =  2.0

     total cpu time spent up to now is       42.8 secs

     total energy              =    -495.35475579 Ry
     estimated scf accuracy    <       0.00083523 Ry

     total magnetization       =     2.75 Bohr mag/cell
     absolute magnetization    =     2.84 Bohr mag/cell

     iteration # 30     ecut=    60.00 Ry     beta= 0.40
     Davidson diagonalization with overlap

---- Real-time Memory Report at c_bands before calling an iterative solver
           103 MiB given to the printing process from OS
            60 MiB allocation reported by mallinfo(arena+hblkhd)
        486725 MiB available memory on the node where the printing process lives
------------------
     ethr =  3.87E-07,  avg # of iterations =  1.0

     total cpu time spent up to now is       44.0 secs

     total energy              =    -495.35477921 Ry
     estimated scf accuracy    <       0.00079835 Ry

     total magnetization       =     2.66 Bohr mag/cell
     absolute magnetization    =     2.80 Bohr mag/cell

     iteration # 31     ecut=    60.00 Ry     beta= 0.40
     Davidson diagonalization with overlap

---- Real-time Memory Report at c_bands before calling an iterative solver
           103 MiB given to the printing process from OS
            60 MiB allocation reported by mallinfo(arena+hblkhd)
        486725 MiB available memory on the node where the printing process lives
------------------
     ethr =  3.87E-07,  avg # of iterations =  1.5

     total cpu time spent up to now is       45.4 secs

     total energy              =    -495.35039816 Ry
     estimated scf accuracy    <       0.00025865 Ry

     total magnetization       =     2.67 Bohr mag/cell
     absolute magnetization    =     2.80 Bohr mag/cell

     iteration # 32     ecut=    60.00 Ry     beta= 0.40
     Davidson diagonalization with overlap

---- Real-time Memory Report at c_bands before calling an iterative solver
           103 MiB given to the printing process from OS
            60 MiB allocation reported by mallinfo(arena+hblkhd)
        486725 MiB available memory on the node where the printing process lives
------------------
     ethr =  3.87E-07,  avg # of iterations =  3.5

     total cpu time spent up to now is       47.3 secs

     total energy              =    -495.35419831 Ry
     estimated scf accuracy    <       0.00296908 Ry

     total magnetization       =     3.09 Bohr mag/cell
     absolute magnetization    =     3.16 Bohr mag/cell

     iteration # 33     ecut=    60.00 Ry     beta= 0.40
     Davidson diagonalization with overlap

---- Real-time Memory Report at c_bands before calling an iterative solver
           103 MiB given to the printing process from OS
            60 MiB allocation reported by mallinfo(arena+hblkhd)
        486724 MiB available memory on the node where the printing process lives
------------------
     ethr =  3.87E-07,  avg # of iterations =  2.6

     total cpu time spent up to now is       49.1 secs

     total energy              =    -495.35449531 Ry
     estimated scf accuracy    <       0.00290381 Ry

     total magnetization       =     2.86 Bohr mag/cell
     absolute magnetization    =     2.92 Bohr mag/cell

     iteration # 34     ecut=    60.00 Ry     beta= 0.40
     Davidson diagonalization with overlap

---- Real-time Memory Report at c_bands before calling an iterative solver
           103 MiB given to the printing process from OS
            60 MiB allocation reported by mallinfo(arena+hblkhd)
        486723 MiB available memory on the node where the printing process lives
------------------
     ethr =  3.87E-07,  avg # of iterations =  2.0

     total cpu time spent up to now is       50.6 secs

     total energy              =    -495.35485828 Ry
     estimated scf accuracy    <       0.00181700 Ry

     total magnetization       =     2.63 Bohr mag/cell
     absolute magnetization    =     2.79 Bohr mag/cell

     iteration # 35     ecut=    60.00 Ry     beta= 0.40
     Davidson diagonalization with overlap

---- Real-time Memory Report at c_bands before calling an iterative solver
           103 MiB given to the printing process from OS
            60 MiB allocation reported by mallinfo(arena+hblkhd)
        486722 MiB available memory on the node where the printing process lives
------------------
     ethr =  3.87E-07,  avg # of iterations =  2.0

     total cpu time spent up to now is       52.1 secs

     total energy              =    -495.35504213 Ry
     estimated scf accuracy    <       0.00043536 Ry

     total magnetization       =     2.45 Bohr mag/cell
     absolute magnetization    =     2.79 Bohr mag/cell

     iteration # 36     ecut=    60.00 Ry     beta= 0.40
     Davidson diagonalization with overlap

---- Real-time Memory Report at c_bands before calling an iterative solver
           103 MiB given to the printing process from OS
            60 MiB allocation reported by mallinfo(arena+hblkhd)
        486720 MiB available memory on the node where the printing process lives
------------------
     ethr =  3.87E-07,  avg # of iterations =  1.0

     total cpu time spent up to now is       53.3 secs

     total energy              =    -495.35344933 Ry
     estimated scf accuracy    <       0.00072410 Ry

     total magnetization       =     2.49 Bohr mag/cell
     absolute magnetization    =     2.78 Bohr mag/cell

     iteration # 37     ecut=    60.00 Ry     beta= 0.40
     Davidson diagonalization with overlap

---- Real-time Memory Report at c_bands before calling an iterative solver
           103 MiB given to the printing process from OS
            60 MiB allocation reported by mallinfo(arena+hblkhd)
        486720 MiB available memory on the node where the printing process lives
------------------
     ethr =  3.87E-07,  avg # of iterations =  3.0

     total cpu time spent up to now is       55.2 secs

     total energy              =    -495.35454411 Ry
     estimated scf accuracy    <       0.02819904 Ry

     total magnetization       =     1.82 Bohr mag/cell
     absolute magnetization    =     3.70 Bohr mag/cell

     iteration # 38     ecut=    60.00 Ry     beta= 0.40
     Davidson diagonalization with overlap

---- Real-time Memory Report at c_bands before calling an iterative solver
           103 MiB given to the printing process from OS
            60 MiB allocation reported by mallinfo(arena+hblkhd)
        486719 MiB available memory on the node where the printing process lives
------------------
     ethr =  3.87E-07,  avg # of iterations =  2.0

     total cpu time spent up to now is       56.8 secs

     total energy              =    -495.35676618 Ry
     estimated scf accuracy    <       0.00509017 Ry

     total magnetization       =     2.20 Bohr mag/cell
     absolute magnetization    =     3.07 Bohr mag/cell

     iteration # 39     ecut=    60.00 Ry     beta= 0.40
     Davidson diagonalization with overlap

---- Real-time Memory Report at c_bands before calling an iterative solver
           103 MiB given to the printing process from OS
            60 MiB allocation reported by mallinfo(arena+hblkhd)
        486719 MiB available memory on the node where the printing process lives
------------------
     ethr =  3.87E-07,  avg # of iterations =  2.0

     total cpu time spent up to now is       58.4 secs

     total energy              =    -495.35859075 Ry
     estimated scf accuracy    <       0.01606620 Ry

     total magnetization       =     1.93 Bohr mag/cell
     absolute magnetization    =     3.48 Bohr mag/cell

     iteration # 40     ecut=    60.00 Ry     beta= 0.40
     Davidson diagonalization with overlap

---- Real-time Memory Report at c_bands before calling an iterative solver
           103 MiB given to the printing process from OS
            60 MiB allocation reported by mallinfo(arena+hblkhd)
        486710 MiB available memory on the node where the printing process lives
------------------
     ethr =  3.87E-07,  avg # of iterations =  2.0

     total cpu time spent up to now is       60.0 secs

     total energy              =    -495.35943718 Ry
     estimated scf accuracy    <       0.03202147 Ry

     total magnetization       =     1.74 Bohr mag/cell
     absolute magnetization    =     3.81 Bohr mag/cell

     iteration # 41     ecut=    60.00 Ry     beta= 0.40
     Davidson diagonalization with overlap

---- Real-time Memory Report at c_bands before calling an iterative solver
           104 MiB given to the printing process from OS
            60 MiB allocation reported by mallinfo(arena+hblkhd)
        486710 MiB available memory on the node where the printing process lives
------------------
     ethr =  3.87E-07,  avg # of iterations =  1.0

     total cpu time spent up to now is       61.2 secs

     total energy              =    -495.33659680 Ry
     estimated scf accuracy    <       0.03606724 Ry

     total magnetization       =     1.71 Bohr mag/cell
     absolute magnetization    =     3.87 Bohr mag/cell

     iteration # 42     ecut=    60.00 Ry     beta= 0.40
     Davidson diagonalization with overlap

---- Real-time Memory Report at c_bands before calling an iterative solver
           104 MiB given to the printing process from OS
            60 MiB allocation reported by mallinfo(arena+hblkhd)
        486710 MiB available memory on the node where the printing process lives
------------------
     ethr =  3.87E-07,  avg # of iterations =  3.6

     total cpu time spent up to now is       63.3 secs

     total energy              =    -495.35334472 Ry
     estimated scf accuracy    <       0.00025733 Ry

     total magnetization       =     3.10 Bohr mag/cell
     absolute magnetization    =     3.15 Bohr mag/cell

     iteration # 43     ecut=    60.00 Ry     beta= 0.40
     Davidson diagonalization with overlap

---- Real-time Memory Report at c_bands before calling an iterative solver
           104 MiB given to the printing process from OS
            60 MiB allocation reported by mallinfo(arena+hblkhd)
        486706 MiB available memory on the node where the printing process lives
------------------
     ethr =  3.87E-07,  avg # of iterations =  2.0

     total cpu time spent up to now is       65.0 secs

     total energy              =    -495.34945140 Ry
     estimated scf accuracy    <       0.00134788 Ry

     total magnetization       =     3.30 Bohr mag/cell
     absolute magnetization    =     3.37 Bohr mag/cell

     iteration # 44     ecut=    60.00 Ry     beta= 0.40
     Davidson diagonalization with overlap

---- Real-time Memory Report at c_bands before calling an iterative solver
           104 MiB given to the printing process from OS
            60 MiB allocation reported by mallinfo(arena+hblkhd)
        486706 MiB available memory on the node where the printing process lives
------------------
     ethr =  3.87E-07,  avg # of iterations =  3.0

     total cpu time spent up to now is       67.0 secs

     total energy              =    -495.35522457 Ry
     estimated scf accuracy    <       0.00246452 Ry

     total magnetization       =     2.23 Bohr mag/cell
     absolute magnetization    =     2.98 Bohr mag/cell

     iteration # 45     ecut=    60.00 Ry     beta= 0.40
     Davidson diagonalization with overlap

---- Real-time Memory Report at c_bands before calling an iterative solver
           104 MiB given to the printing process from OS
            60 MiB allocation reported by mallinfo(arena+hblkhd)
        486706 MiB available memory on the node where the printing process lives
------------------
     ethr =  3.87E-07,  avg # of iterations =  3.0

     total cpu time spent up to now is       68.9 secs

     total energy              =    -495.36033874 Ry
     estimated scf accuracy    <       0.05439445 Ry

     total magnetization       =     1.65 Bohr mag/cell
     absolute magnetization    =     4.06 Bohr mag/cell

     iteration # 46     ecut=    60.00 Ry     beta= 0.40
     Davidson diagonalization with overlap

---- Real-time Memory Report at c_bands before calling an iterative solver
           104 MiB given to the printing process from OS
            60 MiB allocation reported by mallinfo(arena+hblkhd)
        486705 MiB available memory on the node where the printing process lives
------------------
     ethr =  3.87E-07,  avg # of iterations =  1.0

     total cpu time spent up to now is       70.1 secs

     total energy              =    -495.36190033 Ry
     estimated scf accuracy    <       0.04595943 Ry

     total magnetization       =     1.67 Bohr mag/cell
     absolute magnetization    =     3.99 Bohr mag/cell

     iteration # 47     ecut=    60.00 Ry     beta= 0.40
     Davidson diagonalization with overlap

---- Real-time Memory Report at c_bands before calling an iterative solver
           104 MiB given to the printing process from OS
            60 MiB allocation reported by mallinfo(arena+hblkhd)
        486705 MiB available memory on the node where the printing process lives
------------------
     ethr =  3.87E-07,  avg # of iterations =  2.0

     total cpu time spent up to now is       71.7 secs

     total energy              =    -495.36222981 Ry
     estimated scf accuracy    <       0.06993080 Ry

     total magnetization       =     1.66 Bohr mag/cell
     absolute magnetization    =     4.14 Bohr mag/cell

     iteration # 48     ecut=    60.00 Ry     beta= 0.40
     Davidson diagonalization with overlap

---- Real-time Memory Report at c_bands before calling an iterative solver
           104 MiB given to the printing process from OS
            60 MiB allocation reported by mallinfo(arena+hblkhd)
        486705 MiB available memory on the node where the printing process lives
------------------
     ethr =  3.87E-07,  avg # of iterations =  1.0

     total cpu time spent up to now is       72.9 secs

     total energy              =    -495.35939679 Ry
     estimated scf accuracy    <       0.07116660 Ry

     total magnetization       =     1.66 Bohr mag/cell
     absolute magnetization    =     4.15 Bohr mag/cell

     iteration # 49     ecut=    60.00 Ry     beta= 0.40
     Davidson diagonalization with overlap

---- Real-time Memory Report at c_bands before calling an iterative solver
           104 MiB given to the printing process from OS
            60 MiB allocation reported by mallinfo(arena+hblkhd)
        486705 MiB available memory on the node where the printing process lives
------------------
     ethr =  3.87E-07,  avg # of iterations =  2.0

     total cpu time spent up to now is       74.6 secs

     total energy              =    -495.36040580 Ry
     estimated scf accuracy    <       0.04098832 Ry

     total magnetization       =     1.71 Bohr mag/cell
     absolute magnetization    =     3.92 Bohr mag/cell

     iteration # 50     ecut=    60.00 Ry     beta= 0.40
     Davidson diagonalization with overlap

---- Real-time Memory Report at c_bands before calling an iterative solver
           104 MiB given to the printing process from OS
            60 MiB allocation reported by mallinfo(arena+hblkhd)
        486705 MiB available memory on the node where the printing process lives
------------------
     ethr =  3.87E-07,  avg # of iterations =  1.0

     total cpu time spent up to now is       75.8 secs

     total energy              =    -495.35856616 Ry
     estimated scf accuracy    <       0.04874532 Ry

     total magnetization       =     1.67 Bohr mag/cell
     absolute magnetization    =     4.00 Bohr mag/cell

     iteration # 51     ecut=    60.00 Ry     beta= 0.40
     Davidson diagonalization with overlap

---- Real-time Memory Report at c_bands before calling an iterative solver
           104 MiB given to the printing process from OS
            60 MiB allocation reported by mallinfo(arena+hblkhd)
        486705 MiB available memory on the node where the printing process lives
------------------
     ethr =  3.87E-07,  avg # of iterations =  2.0

     total cpu time spent up to now is       77.3 secs

     total energy              =    -495.34473612 Ry
     estimated scf accuracy    <       0.02601864 Ry

     total magnetization       =     1.73 Bohr mag/cell
     absolute magnetization    =     3.78 Bohr mag/cell

     iteration # 52     ecut=    60.00 Ry     beta= 0.40
     Davidson diagonalization with overlap

---- Real-time Memory Report at c_bands before calling an iterative solver
           104 MiB given to the printing process from OS
            60 MiB allocation reported by mallinfo(arena+hblkhd)
        486705 MiB available memory on the node where the printing process lives
------------------
     ethr =  3.87E-07,  avg # of iterations =  3.1

     total cpu time spent up to now is       79.3 secs

     total energy              =    -495.35468382 Ry
     estimated scf accuracy    <       0.00248180 Ry

     total magnetization       =     2.76 Bohr mag/cell
     absolute magnetization    =     2.84 Bohr mag/cell

     iteration # 53     ecut=    60.00 Ry     beta= 0.40
     Davidson diagonalization with overlap

---- Real-time Memory Report at c_bands before calling an iterative solver
           104 MiB given to the printing process from OS
            60 MiB allocation reported by mallinfo(arena+hblkhd)
        486705 MiB available memory on the node where the printing process lives
------------------
     ethr =  3.87E-07,  avg # of iterations =  1.7

     total cpu time spent up to now is       80.7 secs

     total energy              =    -495.35481043 Ry
     estimated scf accuracy    <       0.00027554 Ry

     total magnetization       =     2.69 Bohr mag/cell
     absolute magnetization    =     2.84 Bohr mag/cell

     iteration # 54     ecut=    60.00 Ry     beta= 0.40
     Davidson diagonalization with overlap

---- Real-time Memory Report at c_bands before calling an iterative solver
           104 MiB given to the printing process from OS
            60 MiB allocation reported by mallinfo(arena+hblkhd)
        486704 MiB available memory on the node where the printing process lives
------------------
     ethr =  3.87E-07,  avg # of iterations =  1.0

     total cpu time spent up to now is       81.9 secs

     total energy              =    -495.35481661 Ry
     estimated scf accuracy    <       0.00021590 Ry

     total magnetization       =     2.70 Bohr mag/cell
     absolute magnetization    =     2.84 Bohr mag/cell

     iteration # 55     ecut=    60.00 Ry     beta= 0.40
     Davidson diagonalization with overlap

---- Real-time Memory Report at c_bands before calling an iterative solver
           104 MiB given to the printing process from OS
            60 MiB allocation reported by mallinfo(arena+hblkhd)
        486699 MiB available memory on the node where the printing process lives
------------------
     ethr =  3.48E-07,  avg # of iterations =  1.0

     total cpu time spent up to now is       83.2 secs

     total energy              =    -495.35482076 Ry
     estimated scf accuracy    <       0.00010224 Ry

     total magnetization       =     2.70 Bohr mag/cell
     absolute magnetization    =     2.85 Bohr mag/cell

     iteration # 56     ecut=    60.00 Ry     beta= 0.40
     Davidson diagonalization with overlap

---- Real-time Memory Report at c_bands before calling an iterative solver
           104 MiB given to the printing process from OS
            60 MiB allocation reported by mallinfo(arena+hblkhd)
        486699 MiB available memory on the node where the printing process lives
------------------
     ethr =  1.65E-07,  avg # of iterations =  1.0

     total cpu time spent up to now is       84.4 secs

     total energy              =    -495.35482665 Ry
     estimated scf accuracy    <       0.00012357 Ry

     total magnetization       =     2.70 Bohr mag/cell
     absolute magnetization    =     2.85 Bohr mag/cell

     iteration # 57     ecut=    60.00 Ry     beta= 0.40
     Davidson diagonalization with overlap

---- Real-time Memory Report at c_bands before calling an iterative solver
           104 MiB given to the printing process from OS
            60 MiB allocation reported by mallinfo(arena+hblkhd)
        486699 MiB available memory on the node where the printing process lives
------------------
     ethr =  1.65E-07,  avg # of iterations =  1.0

     total cpu time spent up to now is       85.6 secs

     total energy              =    -495.35486200 Ry
     estimated scf accuracy    <       0.00018418 Ry

     total magnetization       =     2.68 Bohr mag/cell
     absolute magnetization    =     2.84 Bohr mag/cell

     iteration # 58     ecut=    60.00 Ry     beta= 0.40
     Davidson diagonalization with overlap

---- Real-time Memory Report at c_bands before calling an iterative solver
           104 MiB given to the printing process from OS
            60 MiB allocation reported by mallinfo(arena+hblkhd)
        486699 MiB available memory on the node where the printing process lives
------------------
     ethr =  1.65E-07,  avg # of iterations =  1.0

     total cpu time spent up to now is       86.9 secs

     total energy              =    -495.35466029 Ry
     estimated scf accuracy    <       0.00024659 Ry

     total magnetization       =     2.63 Bohr mag/cell
     absolute magnetization    =     2.81 Bohr mag/cell

     iteration # 59     ecut=    60.00 Ry     beta= 0.40
     Davidson diagonalization with overlap

---- Real-time Memory Report at c_bands before calling an iterative solver
           104 MiB given to the printing process from OS
            60 MiB allocation reported by mallinfo(arena+hblkhd)
        486695 MiB available memory on the node where the printing process lives
------------------
     ethr =  1.65E-07,  avg # of iterations =  2.0

     total cpu time spent up to now is       88.3 secs

     total energy              =    -495.35448196 Ry
     estimated scf accuracy    <       0.00021894 Ry

     total magnetization       =     2.77 Bohr mag/cell
     absolute magnetization    =     2.87 Bohr mag/cell

     iteration # 60     ecut=    60.00 Ry     beta= 0.40
     Davidson diagonalization with overlap

---- Real-time Memory Report at c_bands before calling an iterative solver
           104 MiB given to the printing process from OS
            60 MiB allocation reported by mallinfo(arena+hblkhd)
        486695 MiB available memory on the node where the printing process lives
------------------
     ethr =  1.65E-07,  avg # of iterations =  2.0

     total cpu time spent up to now is       89.9 secs

     total energy              =    -495.35458219 Ry
     estimated scf accuracy    <       0.00021566 Ry

     total magnetization       =     2.97 Bohr mag/cell
     absolute magnetization    =     3.03 Bohr mag/cell

     iteration # 61     ecut=    60.00 Ry     beta= 0.40
     Davidson diagonalization with overlap

---- Real-time Memory Report at c_bands before calling an iterative solver
           104 MiB given to the printing process from OS
            60 MiB allocation reported by mallinfo(arena+hblkhd)
        486695 MiB available memory on the node where the printing process lives
------------------
     ethr =  1.65E-07,  avg # of iterations =  2.0

     total cpu time spent up to now is       91.3 secs

     total energy              =    -495.35452783 Ry
     estimated scf accuracy    <       0.00008050 Ry

     total magnetization       =     3.04 Bohr mag/cell
     absolute magnetization    =     3.08 Bohr mag/cell

     iteration # 62     ecut=    60.00 Ry     beta= 0.40
     Davidson diagonalization with overlap

---- Real-time Memory Report at c_bands before calling an iterative solver
           104 MiB given to the printing process from OS
            60 MiB allocation reported by mallinfo(arena+hblkhd)
        486695 MiB available memory on the node where the printing process lives
------------------
     ethr =  1.30E-07,  avg # of iterations =  2.0

     total cpu time spent up to now is       92.7 secs

     total energy              =    -495.35446032 Ry
     estimated scf accuracy    <       0.00012878 Ry

     total magnetization       =     3.12 Bohr mag/cell
     absolute magnetization    =     3.17 Bohr mag/cell

     iteration # 63     ecut=    60.00 Ry     beta= 0.40
     Davidson diagonalization with overlap

---- Real-time Memory Report at c_bands before calling an iterative solver
           104 MiB given to the printing process from OS
            60 MiB allocation reported by mallinfo(arena+hblkhd)
        486695 MiB available memory on the node where the printing process lives
------------------
     ethr =  1.30E-07,  avg # of iterations =  2.0

     total cpu time spent up to now is       94.2 secs

     total energy              =    -495.35442748 Ry
     estimated scf accuracy    <       0.00034125 Ry

     total magnetization       =     3.20 Bohr mag/cell
     absolute magnetization    =     3.25 Bohr mag/cell

     iteration # 64     ecut=    60.00 Ry     beta= 0.40
     Davidson diagonalization with overlap

---- Real-time Memory Report at c_bands before calling an iterative solver
           104 MiB given to the printing process from OS
            60 MiB allocation reported by mallinfo(arena+hblkhd)
        486695 MiB available memory on the node where the printing process lives
------------------
     ethr =  1.30E-07,  avg # of iterations =  2.0

     total cpu time spent up to now is       95.9 secs

     total energy              =    -495.35457886 Ry
     estimated scf accuracy    <       0.00006245 Ry

     total magnetization       =     3.03 Bohr mag/cell
     absolute magnetization    =     3.08 Bohr mag/cell

     iteration # 65     ecut=    60.00 Ry     beta= 0.40
     Davidson diagonalization with overlap

---- Real-time Memory Report at c_bands before calling an iterative solver
           104 MiB given to the printing process from OS
            60 MiB allocation reported by mallinfo(arena+hblkhd)
        486694 MiB available memory on the node where the printing process lives
------------------
     ethr =  1.01E-07,  avg # of iterations =  2.0

     total cpu time spent up to now is       97.5 secs

     total energy              =    -495.35471950 Ry
     estimated scf accuracy    <       0.00014417 Ry

     total magnetization       =     2.90 Bohr mag/cell
     absolute magnetization    =     2.97 Bohr mag/cell

     iteration # 66     ecut=    60.00 Ry     beta= 0.40
     Davidson diagonalization with overlap

---- Real-time Memory Report at c_bands before calling an iterative solver
           104 MiB given to the printing process from OS
            60 MiB allocation reported by mallinfo(arena+hblkhd)
        486694 MiB available memory on the node where the printing process lives
------------------
     ethr =  1.01E-07,  avg # of iterations =  1.0

     total cpu time spent up to now is       98.7 secs

     total energy              =    -495.35475029 Ry
     estimated scf accuracy    <       0.00021270 Ry

     total magnetization       =     2.85 Bohr mag/cell
     absolute magnetization    =     2.95 Bohr mag/cell

     iteration # 67     ecut=    60.00 Ry     beta= 0.40
     Davidson diagonalization with overlap

---- Real-time Memory Report at c_bands before calling an iterative solver
           104 MiB given to the printing process from OS
            60 MiB allocation reported by mallinfo(arena+hblkhd)
        486693 MiB available memory on the node where the printing process lives
------------------
     ethr =  1.01E-07,  avg # of iterations =  1.0

     total cpu time spent up to now is      100.0 secs

     total energy              =    -495.35478998 Ry
     estimated scf accuracy    <       0.00027469 Ry

     total magnetization       =     2.82 Bohr mag/cell
     absolute magnetization    =     2.93 Bohr mag/cell

     iteration # 68     ecut=    60.00 Ry     beta= 0.40
     Davidson diagonalization with overlap

---- Real-time Memory Report at c_bands before calling an iterative solver
           104 MiB given to the printing process from OS
            60 MiB allocation reported by mallinfo(arena+hblkhd)
        486693 MiB available memory on the node where the printing process lives
------------------
     ethr =  1.01E-07,  avg # of iterations =  1.4

     total cpu time spent up to now is      101.3 secs

     total energy              =    -495.35482108 Ry
     estimated scf accuracy    <       0.00049641 Ry

     total magnetization       =     2.76 Bohr mag/cell
     absolute magnetization    =     2.91 Bohr mag/cell

     iteration # 69     ecut=    60.00 Ry     beta= 0.40
     Davidson diagonalization with overlap

---- Real-time Memory Report at c_bands before calling an iterative solver
           104 MiB given to the printing process from OS
            60 MiB allocation reported by mallinfo(arena+hblkhd)
        486693 MiB available memory on the node where the printing process lives
------------------
     ethr =  1.01E-07,  avg # of iterations =  1.0

     total cpu time spent up to now is      102.5 secs

     total energy              =    -495.35477256 Ry
     estimated scf accuracy    <       0.00049917 Ry

     total magnetization       =     2.76 Bohr mag/cell
     absolute magnetization    =     2.91 Bohr mag/cell

     iteration # 70     ecut=    60.00 Ry     beta= 0.40
     Davidson diagonalization with overlap

---- Real-time Memory Report at c_bands before calling an iterative solver
           104 MiB given to the printing process from OS
            60 MiB allocation reported by mallinfo(arena+hblkhd)
        486693 MiB available memory on the node where the printing process lives
------------------
     ethr =  1.01E-07,  avg # of iterations =  1.0

     total cpu time spent up to now is      103.8 secs

     total energy              =    -495.35468170 Ry
     estimated scf accuracy    <       0.00036227 Ry

     total magnetization       =     2.80 Bohr mag/cell
     absolute magnetization    =     2.92 Bohr mag/cell

     iteration # 71     ecut=    60.00 Ry     beta= 0.40
     Davidson diagonalization with overlap

---- Real-time Memory Report at c_bands before calling an iterative solver
           104 MiB given to the printing process from OS
            60 MiB allocation reported by mallinfo(arena+hblkhd)
        486689 MiB available memory on the node where the printing process lives
------------------
     ethr =  1.01E-07,  avg # of iterations =  2.0

     total cpu time spent up to now is      105.1 secs

     total energy              =    -495.35472765 Ry
     estimated scf accuracy    <       0.00018106 Ry

     total magnetization       =     2.87 Bohr mag/cell
     absolute magnetization    =     2.95 Bohr mag/cell

     iteration # 72     ecut=    60.00 Ry     beta= 0.40
     Davidson diagonalization with overlap

---- Real-time Memory Report at c_bands before calling an iterative solver
           104 MiB given to the printing process from OS
            60 MiB allocation reported by mallinfo(arena+hblkhd)
        486689 MiB available memory on the node where the printing process lives
------------------
     ethr =  1.01E-07,  avg # of iterations =  1.0

     total cpu time spent up to now is      106.4 secs

     total energy              =    -495.35446498 Ry
     estimated scf accuracy    <       0.00019665 Ry

     total magnetization       =     2.86 Bohr mag/cell
     absolute magnetization    =     2.95 Bohr mag/cell

     iteration # 73     ecut=    60.00 Ry     beta= 0.40
     Davidson diagonalization with overlap

---- Real-time Memory Report at c_bands before calling an iterative solver
           104 MiB given to the printing process from OS
            60 MiB allocation reported by mallinfo(arena+hblkhd)
        486689 MiB available memory on the node where the printing process lives
------------------
     ethr =  1.01E-07,  avg # of iterations =  2.0

     total cpu time spent up to now is      108.0 secs

     total energy              =    -495.35461826 Ry
     estimated scf accuracy    <       0.00006850 Ry

     total magnetization       =     3.01 Bohr mag/cell
     absolute magnetization    =     3.06 Bohr mag/cell

     iteration # 74     ecut=    60.00 Ry     beta= 0.40
     Davidson diagonalization with overlap

---- Real-time Memory Report at c_bands before calling an iterative solver
           104 MiB given to the printing process from OS
            60 MiB allocation reported by mallinfo(arena+hblkhd)
[...]
------------------
     ethr =  7.42E-08,  avg # of iterations =  3.4

     total cpu time spent up to now is      714.7 secs

     total energy              =    -495.35347327 Ry
     estimated scf accuracy    <       0.00060517 Ry

     total magnetization       =     3.25 Bohr mag/cell
     absolute magnetization    =     3.30 Bohr mag/cell

     iteration #479     ecut=    60.00 Ry     beta= 0.40
     Davidson diagonalization with overlap

---- Real-time Memory Report at c_bands before calling an iterative solver
           106 MiB given to the printing process from OS
            60 MiB allocation reported by mallinfo(arena+hblkhd)
        486727 MiB available memory on the node where the printing process lives
------------------
     ethr =  7.42E-08,  avg # of iterations =  3.1

     total cpu time spent up to now is      716.7 secs

     total energy              =    -495.35380859 Ry
     estimated scf accuracy    <       0.00034296 Ry

     total magnetization       =     2.80 Bohr mag/cell
     absolute magnetization    =     2.92 Bohr mag/cell

     iteration #480     ecut=    60.00 Ry     beta= 0.40
     Davidson diagonalization with overlap

---- Real-time Memory Report at c_bands before calling an iterative solver
           106 MiB given to the printing process from OS
            60 MiB allocation reported by mallinfo(arena+hblkhd)
        486727 MiB available memory on the node where the printing process lives
------------------
     ethr =  7.42E-08,  avg # of iterations =  3.1

     total cpu time spent up to now is      718.7 secs

     total energy              =    -495.35301791 Ry
     estimated scf accuracy    <       0.00984065 Ry

     total magnetization       =     2.22 Bohr mag/cell
     absolute magnetization    =     3.12 Bohr mag/cell

     iteration #481     ecut=    60.00 Ry     beta= 0.40
     Davidson diagonalization with overlap

---- Real-time Memory Report at c_bands before calling an iterative solver
           106 MiB given to the printing process from OS
            60 MiB allocation reported by mallinfo(arena+hblkhd)
        486727 MiB available memory on the node where the printing process lives
------------------
     ethr =  7.42E-08,  avg # of iterations =  4.5

     total cpu time spent up to now is      721.1 secs

     total energy              =    -495.35570375 Ry
     estimated scf accuracy    <       0.09788924 Ry

     total magnetization       =     1.78 Bohr mag/cell
     absolute magnetization    =     4.16 Bohr mag/cell

     iteration #482     ecut=    60.00 Ry     beta= 0.40
     Davidson diagonalization with overlap

---- Real-time Memory Report at c_bands before calling an iterative solver
           106 MiB given to the printing process from OS
            60 MiB allocation reported by mallinfo(arena+hblkhd)
        486726 MiB available memory on the node where the printing process lives
------------------
     ethr =  7.42E-08,  avg # of iterations =  4.3

     total cpu time spent up to now is      723.4 secs

     total energy              =    -495.34875718 Ry
     estimated scf accuracy    <       0.02387438 Ry

     total magnetization       =     1.96 Bohr mag/cell
     absolute magnetization    =     3.52 Bohr mag/cell

     iteration #483     ecut=    60.00 Ry     beta= 0.40
     Davidson diagonalization with overlap

---- Real-time Memory Report at c_bands before calling an iterative solver
           106 MiB given to the printing process from OS
            60 MiB allocation reported by mallinfo(arena+hblkhd)
        486726 MiB available memory on the node where the printing process lives
------------------
     ethr =  7.42E-08,  avg # of iterations =  3.9

     total cpu time spent up to now is      725.6 secs

     total energy              =    -495.35477695 Ry
     estimated scf accuracy    <       0.00025345 Ry

     total magnetization       =     2.84 Bohr mag/cell
     absolute magnetization    =     2.94 Bohr mag/cell

     iteration #484     ecut=    60.00 Ry     beta= 0.40
     Davidson diagonalization with overlap

---- Real-time Memory Report at c_bands before calling an iterative solver
           106 MiB given to the printing process from OS
            60 MiB allocation reported by mallinfo(arena+hblkhd)
        486725 MiB available memory on the node where the printing process lives
------------------
     ethr =  7.42E-08,  avg # of iterations =  2.0

     total cpu time spent up to now is      727.1 secs

     total energy              =    -495.35483643 Ry
     estimated scf accuracy    <       0.00063292 Ry

     total magnetization       =     2.73 Bohr mag/cell
     absolute magnetization    =     2.90 Bohr mag/cell

     iteration #485     ecut=    60.00 Ry     beta= 0.40
     Davidson diagonalization with overlap

---- Real-time Memory Report at c_bands before calling an iterative solver
           106 MiB given to the printing process from OS
            60 MiB allocation reported by mallinfo(arena+hblkhd)
        486725 MiB available memory on the node where the printing process lives
------------------
     ethr =  7.42E-08,  avg # of iterations =  1.0

     total cpu time spent up to now is      728.4 secs

     total energy              =    -495.35476081 Ry
     estimated scf accuracy    <       0.00057845 Ry

     total magnetization       =     2.74 Bohr mag/cell
     absolute magnetization    =     2.90 Bohr mag/cell

     iteration #486     ecut=    60.00 Ry     beta= 0.40
     Davidson diagonalization with overlap

---- Real-time Memory Report at c_bands before calling an iterative solver
           106 MiB given to the printing process from OS
            60 MiB allocation reported by mallinfo(arena+hblkhd)
        486725 MiB available memory on the node where the printing process lives
------------------
     ethr =  7.42E-08,  avg # of iterations =  1.0

     total cpu time spent up to now is      729.6 secs

     total energy              =    -495.35466481 Ry
     estimated scf accuracy    <       0.00036658 Ry

     total magnetization       =     2.80 Bohr mag/cell
     absolute magnetization    =     2.92 Bohr mag/cell

     iteration #487     ecut=    60.00 Ry     beta= 0.40
     Davidson diagonalization with overlap

---- Real-time Memory Report at c_bands before calling an iterative solver
           106 MiB given to the printing process from OS
            60 MiB allocation reported by mallinfo(arena+hblkhd)
        486725 MiB available memory on the node where the printing process lives
------------------
     ethr =  7.42E-08,  avg # of iterations =  2.0

     total cpu time spent up to now is      731.1 secs

     total energy              =    -495.35464849 Ry
     estimated scf accuracy    <       0.00016901 Ry

     total magnetization       =     2.88 Bohr mag/cell
     absolute magnetization    =     2.96 Bohr mag/cell

     iteration #488     ecut=    60.00 Ry     beta= 0.40
     Davidson diagonalization with overlap

---- Real-time Memory Report at c_bands before calling an iterative solver
           106 MiB given to the printing process from OS
            60 MiB allocation reported by mallinfo(arena+hblkhd)
        486724 MiB available memory on the node where the printing process lives
------------------
     ethr =  7.42E-08,  avg # of iterations =  2.0

     total cpu time spent up to now is      732.4 secs

     total energy              =    -495.35466494 Ry
     estimated scf accuracy    <       0.00009520 Ry

     total magnetization       =     2.94 Bohr mag/cell
     absolute magnetization    =     3.00 Bohr mag/cell

     iteration #489     ecut=    60.00 Ry     beta= 0.40
     Davidson diagonalization with overlap

---- Real-time Memory Report at c_bands before calling an iterative solver
           106 MiB given to the printing process from OS
            60 MiB allocation reported by mallinfo(arena+hblkhd)
        486724 MiB available memory on the node where the printing process lives
------------------
     ethr =  7.42E-08,  avg # of iterations =  1.0

     total cpu time spent up to now is      733.7 secs

     total energy              =    -495.35463391 Ry
     estimated scf accuracy    <       0.00008125 Ry

     total magnetization       =     2.96 Bohr mag/cell
     absolute magnetization    =     3.02 Bohr mag/cell

     iteration #490     ecut=    60.00 Ry     beta= 0.40
     Davidson diagonalization with overlap

---- Real-time Memory Report at c_bands before calling an iterative solver
           106 MiB given to the printing process from OS
            60 MiB allocation reported by mallinfo(arena+hblkhd)
        486724 MiB available memory on the node where the printing process lives
------------------
     ethr =  7.42E-08,  avg # of iterations =  1.0

     total cpu time spent up to now is      734.9 secs

     total energy              =    -495.35459801 Ry
     estimated scf accuracy    <       0.00006081 Ry

     total magnetization       =     3.00 Bohr mag/cell
     absolute magnetization    =     3.05 Bohr mag/cell

     iteration #491     ecut=    60.00 Ry     beta= 0.40
     Davidson diagonalization with overlap

---- Real-time Memory Report at c_bands before calling an iterative solver
           106 MiB given to the printing process from OS
            60 MiB allocation reported by mallinfo(arena+hblkhd)
        486724 MiB available memory on the node where the printing process lives
------------------
     ethr =  7.42E-08,  avg # of iterations =  2.0

     total cpu time spent up to now is      736.3 secs

     total energy              =    -495.35460356 Ry
     estimated scf accuracy    <       0.00005788 Ry

     total magnetization       =     3.06 Bohr mag/cell
     absolute magnetization    =     3.10 Bohr mag/cell

     iteration #492     ecut=    60.00 Ry     beta= 0.40
     Davidson diagonalization with overlap

---- Real-time Memory Report at c_bands before calling an iterative solver
           106 MiB given to the printing process from OS
            60 MiB allocation reported by mallinfo(arena+hblkhd)
        486724 MiB available memory on the node where the printing process lives
------------------
     ethr =  7.42E-08,  avg # of iterations =  1.0

     total cpu time spent up to now is      737.6 secs

     total energy              =    -495.35460368 Ry
     estimated scf accuracy    <       0.00006554 Ry

     total magnetization       =     3.08 Bohr mag/cell
     absolute magnetization    =     3.13 Bohr mag/cell

     iteration #493     ecut=    60.00 Ry     beta= 0.40
     Davidson diagonalization with overlap

---- Real-time Memory Report at c_bands before calling an iterative solver
           106 MiB given to the printing process from OS
            60 MiB allocation reported by mallinfo(arena+hblkhd)
        486724 MiB available memory on the node where the printing process lives
------------------
     ethr =  7.42E-08,  avg # of iterations =  1.0

     total cpu time spent up to now is      738.8 secs

     total energy              =    -495.35451853 Ry
     estimated scf accuracy    <       0.00007250 Ry

     total magnetization       =     3.09 Bohr mag/cell
     absolute magnetization    =     3.14 Bohr mag/cell

     iteration #494     ecut=    60.00 Ry     beta= 0.40
     Davidson diagonalization with overlap

---- Real-time Memory Report at c_bands before calling an iterative solver
           106 MiB given to the printing process from OS
            60 MiB allocation reported by mallinfo(arena+hblkhd)
        486723 MiB available memory on the node where the printing process lives
------------------
     ethr =  7.42E-08,  avg # of iterations =  2.0

     total cpu time spent up to now is      740.3 secs

     total energy              =    -495.35452017 Ry
     estimated scf accuracy    <       0.00016660 Ry

     total magnetization       =     3.16 Bohr mag/cell
     absolute magnetization    =     3.21 Bohr mag/cell

     iteration #495     ecut=    60.00 Ry     beta= 0.40
     Davidson diagonalization with overlap

---- Real-time Memory Report at c_bands before calling an iterative solver
           106 MiB given to the printing process from OS
            60 MiB allocation reported by mallinfo(arena+hblkhd)
        486723 MiB available memory on the node where the printing process lives
------------------
     ethr =  7.42E-08,  avg # of iterations =  1.0

     total cpu time spent up to now is      741.5 secs

     total energy              =    -495.35425633 Ry
     estimated scf accuracy    <       0.00024079 Ry

     total magnetization       =     3.19 Bohr mag/cell
     absolute magnetization    =     3.23 Bohr mag/cell

     iteration #496     ecut=    60.00 Ry     beta= 0.40
     Davidson diagonalization with overlap

---- Real-time Memory Report at c_bands before calling an iterative solver
           106 MiB given to the printing process from OS
            60 MiB allocation reported by mallinfo(arena+hblkhd)
        486723 MiB available memory on the node where the printing process lives
------------------
     ethr =  7.42E-08,  avg # of iterations =  3.0

     total cpu time spent up to now is      743.3 secs

     total energy              =    -495.35435188 Ry
     estimated scf accuracy    <       0.00008640 Ry

     total magnetization       =     2.94 Bohr mag/cell
     absolute magnetization    =     3.00 Bohr mag/cell

     iteration #497     ecut=    60.00 Ry     beta= 0.40
     Davidson diagonalization with overlap

---- Real-time Memory Report at c_bands before calling an iterative solver
           106 MiB given to the printing process from OS
            60 MiB allocation reported by mallinfo(arena+hblkhd)
        486722 MiB available memory on the node where the printing process lives
------------------
     ethr =  7.42E-08,  avg # of iterations =  2.0

     total cpu time spent up to now is      745.0 secs

     total energy              =    -495.35456714 Ry
     estimated scf accuracy    <       0.00008732 Ry

     total magnetization       =     3.12 Bohr mag/cell
     absolute magnetization    =     3.16 Bohr mag/cell

     iteration #498     ecut=    60.00 Ry     beta= 0.40
     Davidson diagonalization with overlap

---- Real-time Memory Report at c_bands before calling an iterative solver
           106 MiB given to the printing process from OS
            60 MiB allocation reported by mallinfo(arena+hblkhd)
        486722 MiB available memory on the node where the printing process lives
------------------
     ethr =  7.42E-08,  avg # of iterations =  1.0

     total cpu time spent up to now is      746.2 secs

     total energy              =    -495.35456823 Ry
     estimated scf accuracy    <       0.00011835 Ry

     total magnetization       =     3.14 Bohr mag/cell
     absolute magnetization    =     3.18 Bohr mag/cell

     iteration #499     ecut=    60.00 Ry     beta= 0.40
     Davidson diagonalization with overlap

---- Real-time Memory Report at c_bands before calling an iterative solver
           106 MiB given to the printing process from OS
            60 MiB allocation reported by mallinfo(arena+hblkhd)
        486722 MiB available memory on the node where the printing process lives
------------------
     ethr =  7.42E-08,  avg # of iterations =  2.0

     total cpu time spent up to now is      747.8 secs

     total energy              =    -495.35462928 Ry
     estimated scf accuracy    <       0.00005522 Ry

     total magnetization       =     3.05 Bohr mag/cell
     absolute magnetization    =     3.10 Bohr mag/cell

     iteration #500     ecut=    60.00 Ry     beta= 0.40
     Davidson diagonalization with overlap

---- Real-time Memory Report at c_bands before calling an iterative solver
           106 MiB given to the printing process from OS
            60 MiB allocation reported by mallinfo(arena+hblkhd)
        486722 MiB available memory on the node where the printing process lives
------------------
     ethr =  7.42E-08,  avg # of iterations =  2.0

     total cpu time spent up to now is      749.2 secs

     total energy              =    -495.35451235 Ry
     estimated scf accuracy    <       0.00005601 Ry

     total magnetization       =     3.01 Bohr mag/cell
     absolute magnetization    =     3.06 Bohr mag/cell

     End of self-consistent calculation

     convergence NOT achieved after 500 iterations: stopping

     Writing config to output data dir ./out/aiida.save/ :
     XML data file, charge density

     init_run     :      1.67s CPU      1.75s WALL (       1 calls)
     electrons    :    723.12s CPU    746.89s WALL (       1 calls)

     Called by init_run:
     wfcinit      :      0.45s CPU      0.49s WALL (       1 calls)
     wfcinit:atom :      0.01s CPU      0.01s WALL (      22 calls)
     wfcinit:wfcr :      0.38s CPU      0.42s WALL (      22 calls)
     potinit      :      0.46s CPU      0.47s WALL (       1 calls)
     hinit0       :      0.70s CPU      0.72s WALL (       1 calls)

     Called by electrons:
     c_bands      :    568.69s CPU    587.11s WALL (     500 calls)
     sum_band     :    101.56s CPU    105.49s WALL (     500 calls)
     v_of_rho     :     34.00s CPU     34.69s WALL (     501 calls)
     v_h          :      1.28s CPU      1.36s WALL (     501 calls)
     v_xc         :     32.72s CPU     33.32s WALL (     501 calls)
     newd         :      8.11s CPU      8.20s WALL (     501 calls)
     mix_rho      :      4.66s CPU      4.82s WALL (     500 calls)

     Called by c_bands:
     init_us_2    :     11.45s CPU     11.74s WALL (   22022 calls)
     init_us_2:cp :     11.39s CPU     11.66s WALL (   22022 calls)
     cegterg      :    543.80s CPU    556.27s WALL (   11000 calls)

     Called by sum_band:
     sum_band:wei :      0.93s CPU      0.93s WALL (     500 calls)
     sum_band:loo :     84.75s CPU     87.28s WALL (     500 calls)
     sum_band:buf :      1.89s CPU      1.94s WALL (   11000 calls)
     sum_band:ini :      5.01s CPU      5.10s WALL (   11000 calls)
     sum_band:cal :     10.34s CPU     10.53s WALL (   11000 calls)
     sum_band:bec :      0.22s CPU      0.23s WALL (   11000 calls)
     addusdens    :     12.40s CPU     12.71s WALL (     500 calls)
                                        0.00s GPU  (     500 calls)
     addusd:skk   :      0.09s CPU      0.09s WALL (    1500 calls)
                                        0.00s GPU  (    1500 calls)

     Called by *egterg:
     cdiaghg      :     49.67s CPU     50.02s WALL (   31182 calls)
     cegterg:over :     27.99s CPU     28.41s WALL (   20182 calls)
     cegterg:upda :     16.10s CPU     16.31s WALL (   20182 calls)
     cegterg:last :     31.88s CPU     31.99s WALL (   18927 calls)
     h_psi        :    373.85s CPU    384.77s WALL (   31204 calls)
     s_psi        :     22.45s CPU     22.56s WALL (   31204 calls)
     g_psi        :      1.71s CPU      1.75s WALL (   20182 calls)

     Called by h_psi:
     h_psi:calbec :     32.94s CPU     33.46s WALL (   31204 calls)
     vloc_psi     :    312.97s CPU    323.01s WALL (   31204 calls)
     add_vuspsi   :     22.72s CPU     22.92s WALL (   31204 calls)

     General routines
     calbec       :     43.17s CPU     43.85s WALL (   42204 calls)
     fft          :     10.12s CPU     11.03s WALL (   12523 calls)
     ffts         :      0.89s CPU      0.96s WALL (    2002 calls)
     fftw         :    290.30s CPU    298.74s WALL ( 2375832 calls)
     interpolate  :      1.72s CPU      1.82s WALL (    1002 calls)
     davcio       :      0.00s CPU      0.05s WALL (      40 calls)

     Parallel routines

     PWSCF        :  12m 5.17s CPU  12m29.82s WALL


   This run was terminated on:  21: 1:37  28Nov2023            

=------------------------------------------------------------------------------=
   JOB DONE.
=------------------------------------------------------------------------------=
