
     Program PWSCF v.7.2 starts on 28Nov2023 at 22:13:12 
        Git branch: develop
        Last git commit: 9055681be6fc8200e6fffe76ed5fda34c2696339
        Last git commit date: Wed Nov 8 16:29:39 2023 +0000
        Last git commit subject: Merge branch 'calbec_fix' into 'develop'

     This program is part of the open-source Quantum ESPRESSO suite
     for quantum simulation of materials; please cite
         "P. Giannozzi et al., J. Phys.:Condens. Matter 21 395502 (2009);
         "P. Giannozzi et al., J. Phys.:Condens. Matter 29 465901 (2017);
         "P. Giannozzi et al., J. Chem. Phys. 152 154105 (2020);
          URL http://www.quantum-espresso.org", 
     in publications or presentations arising from this work. More details at
     http://www.quantum-espresso.org/quote

     Parallel version (MPI), running on    56 processors

     MPI processes distributed on     1 nodes
     487737 MiB available memory on the printing compute node when the environment starts

     Reading input from aiida.in

     Current dimensions of program PWSCF are:
     Max number of different atomic species (ntypx) = 10
     Max number of k-points (npk) =  40000
     Max angular momentum in pseudopotentials (lmaxx) =  4
     file O.pbesol-n-kjpaw_psl.0.1.UPF: wavefunction(s)  2P renormalized
     Message from routine setup:
     using ibrav=0 with symmetry is DISCOURAGED, use correct ibrav instead

     K-points division:     npool     =       8
     R & G space division:  proc/nbgrp/npool/nimage =       7
     Subspace diagonalization in iterative solution of the eigenvalue problem:
     a serial algorithm will be used


     Parallelization info
     --------------------
     sticks:   dense  smooth     PW     G-vecs:    dense   smooth      PW
     Min         763     382    106                36715    12991    1909
     Max         763     383    107                36716    12994    1912
     Sum        5341    2677    745               257011    90945   13371

     Using Slab Decomposition



     bravais-lattice index     =            0
     lattice parameter (alat)  =      13.9102  a.u.
     unit-cell volume          =    1903.2191 (a.u.)^3
     number of atoms/cell      =            9
     number of atomic types    =            3
     number of electrons       =        69.00
     number of Kohn-Sham states=           42
     kinetic-energy cutoff     =      50.0000  Ry
     charge density cutoff     =     400.0000  Ry
     scf convergence threshold =      1.8E-09
     mixing beta               =       0.4000
     number of iterations used =            8  plain     mixing
     Exchange-correlation= PBESOL
                           (   1   4  10   8   0   0   0)

     celldm(1)=  13.910239  celldm(2)=   0.000000  celldm(3)=   0.000000
     celldm(4)=   0.000000  celldm(5)=   0.000000  celldm(6)=   0.000000

     crystal axes: (cart. coord. in units of alat)
               a(1) = (   0.000000   0.707107   0.707107 )  
               a(2) = (   0.707107   0.000000   0.707107 )  
               a(3) = (   0.707107   0.707107   0.000000 )  

     reciprocal axes: (cart. coord. in units 2 pi/alat)
               b(1) = ( -0.707107  0.707107  0.707107 )  
               b(2) = (  0.707107 -0.707107  0.707107 )  
               b(3) = (  0.707107  0.707107 -0.707107 )  


     PseudoPot. # 1 for Br read from file:
     ./pseudo/br_pbesol_v1.4.uspp.F.UPF
     MD5 check sum: 7bf6084e715f6bfd1944787c04c43e72
     Pseudo is Ultrasoft + core correction, Zval =  7.0
     Generated by new atomic code, or converted to UPF format
     Using radial grid of  879 points,  6 beta functions with: 
                l(1) =   0
                l(2) =   0
                l(3) =   1
                l(4) =   1
                l(5) =   2
                l(6) =   2
     Q(r) pseudized with  8 coefficients,  rinner =    1.200   1.200   1.200
                                                       1.200   1.200

     PseudoPot. # 2 for O  read from file:
     ./pseudo/O.pbesol-n-kjpaw_psl.0.1.UPF
     MD5 check sum: 81d73d1479e654e5638b0319f0d6c2c7
     Pseudo is Projector augmented-wave + core cor, Zval =  6.0
     Generated using "atomic" code by A. Dal Corso  v.6.0 svn rev. 13079
     Shape of augmentation charge: BESSEL
     Using radial grid of 1095 points,  4 beta functions with: 
                l(1) =   0
                l(2) =   0
                l(3) =   1
                l(4) =   1
     Q(r) pseudized with 0 coefficients 


     PseudoPot. # 3 for Tc read from file:
     ./pseudo/Tc_ONCV_PBEsol-1.0.upf
     MD5 check sum: e1002180990b9df3eeb3e08c45184084
     Pseudo is Norm-conserving, Zval = 15.0
     Generated using ONCVPSP code by D. R. Hamann
     Using radial grid of 1474 points,  6 beta functions with: 
                l(1) =   0
                l(2) =   0
                l(3) =   1
                l(4) =   1
                l(5) =   2
                l(6) =   2

     atomic species   valence    mass     pseudopotential
     Br                7.00    79.90400     Br( 1.00)
     O                 6.00    15.99940     O ( 1.00)
     Tc               15.00    98.00000     Tc( 1.00)

     Starting magnetic structure 
     atomic species   magnetization
     Br              0.100
     O               0.100
     Tc              0.333

     48 Sym. Ops., with inversion, found


                                    s                        frac. trans.

      isym =  1     identity                                     

 cryst.   s( 1) = (     1          0          0      )
                  (     0          1          0      )
                  (     0          0          1      )

 cart.    s( 1) = (  1.0000000 -0.0000000  0.0000000 )
                  ( -0.0000000  1.0000000  0.0000000 )
                  ( -0.0000000  0.0000000  1.0000000 )


      isym =  2     180 deg rotation - cart. axis [0,0,1]        

 cryst.   s( 2) = (     0          1         -1      )
                  (     1          0         -1      )
                  (     0          0         -1      )

 cart.    s( 2) = ( -1.0000000  0.0000000  0.0000000 )
                  (  0.0000000 -1.0000000  0.0000000 )
                  (  0.0000000 -0.0000000  1.0000000 )


      isym =  3     180 deg rotation - cart. axis [0,1,0]        

 cryst.   s( 3) = (     0         -1          1      )
                  (     0         -1          0      )
                  (     1         -1          0      )

 cart.    s( 3) = ( -1.0000000 -0.0000000 -0.0000000 )
                  (  0.0000000  1.0000000 -0.0000000 )
                  (  0.0000000  0.0000000 -1.0000000 )


      isym =  4     180 deg rotation - cart. axis [1,0,0]        

 cryst.   s( 4) = (    -1          0          0      )
                  (    -1          0          1      )
                  (    -1          1          0      )

 cart.    s( 4) = (  1.0000000  0.0000000 -0.0000000 )
                  ( -0.0000000 -1.0000000 -0.0000000 )
                  ( -0.0000000 -0.0000000 -1.0000000 )


      isym =  5     180 deg rotation - cart. axis [1,1,0]        

 cryst.   s( 5) = (    -1          0          1      )
                  (     0         -1          1      )
                  (     0          0          1      )

 cart.    s( 5) = ( -0.0000000  1.0000000 -0.0000000 )
                  (  1.0000000 -0.0000000 -0.0000000 )
                  (  0.0000000 -0.0000000 -1.0000000 )


      isym =  6     180 deg rotation - cart. axis [1,-1,0]       

 cryst.   s( 6) = (     0         -1          0      )
                  (    -1          0          0      )
                  (     0          0         -1      )

 cart.    s( 6) = (  0.0000000 -1.0000000 -0.0000000 )
                  ( -1.0000000  0.0000000 -0.0000000 )
                  ( -0.0000000  0.0000000 -1.0000000 )


      isym =  7      90 deg rotation - cart. axis [0,0,-1]       

 cryst.   s( 7) = (     0          1          0      )
                  (     0          1         -1      )
                  (    -1          1          0      )

 cart.    s( 7) = (  0.0000000  1.0000000  0.0000000 )
                  ( -1.0000000 -0.0000000  0.0000000 )
                  ( -0.0000000 -0.0000000  1.0000000 )


      isym =  8      90 deg rotation - cart. axis [0,0,1]        

 cryst.   s( 8) = (     1          0         -1      )
                  (     1          0          0      )
                  (     1         -1          0      )

 cart.    s( 8) = ( -0.0000000 -1.0000000  0.0000000 )
                  (  1.0000000  0.0000000  0.0000000 )
                  (  0.0000000  0.0000000  1.0000000 )


      isym =  9     180 deg rotation - cart. axis [1,0,1]        

 cryst.   s( 9) = (    -1          1          0      )
                  (     0          1          0      )
                  (     0          1         -1      )

 cart.    s( 9) = (  0.0000000  0.0000000  1.0000000 )
                  (  0.0000000 -1.0000000 -0.0000000 )
                  (  1.0000000 -0.0000000 -0.0000000 )


      isym = 10     180 deg rotation - cart. axis [-1,0,1]       

 cryst.   s(10) = (     0          0         -1      )
                  (     0         -1          0      )
                  (    -1          0          0      )

 cart.    s(10) = ( -0.0000000  0.0000000 -1.0000000 )
                  ( -0.0000000 -1.0000000  0.0000000 )
                  ( -1.0000000 -0.0000000  0.0000000 )


      isym = 11      90 deg rotation - cart. axis [0,1,0]        

 cryst.   s(11) = (     0          0          1      )
                  (    -1          0          1      )
                  (     0         -1          1      )

 cart.    s(11) = ( -0.0000000 -0.0000000  1.0000000 )
                  ( -0.0000000  1.0000000 -0.0000000 )
                  ( -1.0000000  0.0000000 -0.0000000 )


      isym = 12      90 deg rotation - cart. axis [0,-1,0]       

 cryst.   s(12) = (     1         -1          0      )
                  (     1          0         -1      )
                  (     1          0          0      )

 cart.    s(12) = (  0.0000000 -0.0000000 -1.0000000 )
                  (  0.0000000  1.0000000  0.0000000 )
                  (  1.0000000  0.0000000  0.0000000 )


      isym = 13     180 deg rotation - cart. axis [0,1,1]        

 cryst.   s(13) = (     1          0          0      )
                  (     1         -1          0      )
                  (     1          0         -1      )

 cart.    s(13) = ( -1.0000000  0.0000000 -0.0000000 )
                  (  0.0000000  0.0000000  1.0000000 )
                  (  0.0000000  1.0000000  0.0000000 )


      isym = 14     180 deg rotation - cart. axis [0,1,-1]       

 cryst.   s(14) = (    -1          0          0      )
                  (     0          0         -1      )
                  (     0         -1          0      )

 cart.    s(14) = ( -1.0000000 -0.0000000  0.0000000 )
                  (  0.0000000 -0.0000000 -1.0000000 )
                  (  0.0000000 -1.0000000 -0.0000000 )


      isym = 15      90 deg rotation - cart. axis [-1,0,0]       

 cryst.   s(15) = (     0         -1          1      )
                  (     0          0          1      )
                  (    -1          0          1      )

 cart.    s(15) = (  1.0000000 -0.0000000 -0.0000000 )
                  ( -0.0000000 -0.0000000  1.0000000 )
                  ( -0.0000000 -1.0000000  0.0000000 )


      isym = 16      90 deg rotation - cart. axis [1,0,0]        

 cryst.   s(16) = (     0          1         -1      )
                  (    -1          1          0      )
                  (     0          1          0      )

 cart.    s(16) = (  1.0000000  0.0000000  0.0000000 )
                  ( -0.0000000  0.0000000 -1.0000000 )
                  ( -0.0000000  1.0000000 -0.0000000 )


      isym = 17     120 deg rotation - cart. axis [-1,-1,-1]     

 cryst.   s(17) = (     0          0          1      )
                  (     1          0          0      )
                  (     0          1          0      )

 cart.    s(17) = (  0.0000000  1.0000000 -0.0000000 )
                  (  0.0000000 -0.0000000  1.0000000 )
                  (  1.0000000 -0.0000000  0.0000000 )


      isym = 18     120 deg rotation - cart. axis [-1,1,1]       

 cryst.   s(18) = (     1         -1          0      )
                  (     0         -1          1      )
                  (     0         -1          0      )

 cart.    s(18) = ( -0.0000000 -1.0000000 -0.0000000 )
                  ( -0.0000000  0.0000000  1.0000000 )
                  ( -1.0000000  0.0000000  0.0000000 )


      isym = 19     120 deg rotation - cart. axis [1,1,-1]       

 cryst.   s(19) = (    -1          1          0      )
                  (    -1          0          0      )
                  (    -1          0          1      )

 cart.    s(19) = ( -0.0000000  1.0000000  0.0000000 )
                  ( -0.0000000 -0.0000000 -1.0000000 )
                  ( -1.0000000 -0.0000000 -0.0000000 )


      isym = 20     120 deg rotation - cart. axis [1,-1,1]       

 cryst.   s(20) = (     0          0         -1      )
                  (     0          1         -1      )
                  (     1          0         -1      )

 cart.    s(20) = (  0.0000000 -1.0000000  0.0000000 )
                  (  0.0000000  0.0000000 -1.0000000 )
                  (  1.0000000  0.0000000 -0.0000000 )


      isym = 21     120 deg rotation - cart. axis [1,1,1]        

 cryst.   s(21) = (     0          1          0      )
                  (     0          0          1      )
                  (     1          0          0      )

 cart.    s(21) = ( -0.0000000  0.0000000  1.0000000 )
                  (  1.0000000  0.0000000 -0.0000000 )
                  (  0.0000000  1.0000000 -0.0000000 )


      isym = 22     120 deg rotation - cart. axis [-1,1,-1]      

 cryst.   s(22) = (    -1          0          1      )
                  (    -1          1          0      )
                  (    -1          0          0      )

 cart.    s(22) = (  0.0000000 -0.0000000  1.0000000 )
                  ( -1.0000000 -0.0000000 -0.0000000 )
                  ( -0.0000000 -1.0000000 -0.0000000 )


      isym = 23     120 deg rotation - cart. axis [1,-1,-1]      

 cryst.   s(23) = (     1          0         -1      )
                  (     0          0         -1      )
                  (     0          1         -1      )

 cart.    s(23) = (  0.0000000  0.0000000 -1.0000000 )
                  ( -1.0000000  0.0000000  0.0000000 )
                  ( -0.0000000  1.0000000  0.0000000 )


      isym = 24     120 deg rotation - cart. axis [-1,-1,1]      

 cryst.   s(24) = (     0         -1          0      )
                  (     1         -1          0      )
                  (     0         -1          1      )

 cart.    s(24) = ( -0.0000000 -0.0000000 -1.0000000 )
                  (  1.0000000 -0.0000000  0.0000000 )
                  (  0.0000000 -1.0000000  0.0000000 )


      isym = 25     inversion                                    

 cryst.   s(25) = (    -1          0          0      )
                  (     0         -1          0      )
                  (     0          0         -1      )

 cart.    s(25) = ( -1.0000000  0.0000000 -0.0000000 )
                  (  0.0000000 -1.0000000 -0.0000000 )
                  (  0.0000000 -0.0000000 -1.0000000 )


      isym = 26     inv. 180 deg rotation - cart. axis [0,0,1]   

 cryst.   s(26) = (     0         -1          1      )
                  (    -1          0          1      )
                  (     0          0          1      )

 cart.    s(26) = (  1.0000000 -0.0000000 -0.0000000 )
                  ( -0.0000000  1.0000000 -0.0000000 )
                  ( -0.0000000  0.0000000 -1.0000000 )


      isym = 27     inv. 180 deg rotation - cart. axis [0,1,0]   

 cryst.   s(27) = (     0          1         -1      )
                  (     0          1          0      )
                  (    -1          1          0      )

 cart.    s(27) = (  1.0000000  0.0000000  0.0000000 )
                  ( -0.0000000 -1.0000000  0.0000000 )
                  ( -0.0000000 -0.0000000  1.0000000 )


      isym = 28     inv. 180 deg rotation - cart. axis [1,0,0]   

 cryst.   s(28) = (     1          0          0      )
                  (     1          0         -1      )
                  (     1         -1          0      )

 cart.    s(28) = ( -1.0000000 -0.0000000  0.0000000 )
                  (  0.0000000  1.0000000  0.0000000 )
                  (  0.0000000  0.0000000  1.0000000 )


      isym = 29     inv. 180 deg rotation - cart. axis [1,1,0]   

 cryst.   s(29) = (     1          0         -1      )
                  (     0          1         -1      )
                  (     0          0         -1      )

 cart.    s(29) = (  0.0000000 -1.0000000  0.0000000 )
                  ( -1.0000000  0.0000000  0.0000000 )
                  ( -0.0000000  0.0000000  1.0000000 )


      isym = 30     inv. 180 deg rotation - cart. axis [1,-1,0]  

 cryst.   s(30) = (     0          1          0      )
                  (     1          0          0      )
                  (     0          0          1      )

 cart.    s(30) = ( -0.0000000  1.0000000  0.0000000 )
                  (  1.0000000 -0.0000000  0.0000000 )
                  (  0.0000000 -0.0000000  1.0000000 )


      isym = 31     inv.  90 deg rotation - cart. axis [0,0,-1]  

 cryst.   s(31) = (     0         -1          0      )
                  (     0         -1          1      )
                  (     1         -1          0      )

 cart.    s(31) = ( -0.0000000 -1.0000000 -0.0000000 )
                  (  1.0000000  0.0000000 -0.0000000 )
                  (  0.0000000  0.0000000 -1.0000000 )


      isym = 32     inv.  90 deg rotation - cart. axis [0,0,1]   

 cryst.   s(32) = (    -1          0          1      )
                  (    -1          0          0      )
                  (    -1          1          0      )

 cart.    s(32) = (  0.0000000  1.0000000 -0.0000000 )
                  ( -1.0000000 -0.0000000 -0.0000000 )
                  ( -0.0000000 -0.0000000 -1.0000000 )


      isym = 33     inv. 180 deg rotation - cart. axis [1,0,1]   

 cryst.   s(33) = (     1         -1          0      )
                  (     0         -1          0      )
                  (     0         -1          1      )

 cart.    s(33) = ( -0.0000000 -0.0000000 -1.0000000 )
                  ( -0.0000000  1.0000000  0.0000000 )
                  ( -1.0000000  0.0000000  0.0000000 )


      isym = 34     inv. 180 deg rotation - cart. axis [-1,0,1]  

 cryst.   s(34) = (     0          0          1      )
                  (     0          1          0      )
                  (     1          0          0      )

 cart.    s(34) = (  0.0000000 -0.0000000  1.0000000 )
                  (  0.0000000  1.0000000 -0.0000000 )
                  (  1.0000000  0.0000000 -0.0000000 )


      isym = 35     inv.  90 deg rotation - cart. axis [0,1,0]   

 cryst.   s(35) = (     0          0         -1      )
                  (     1          0         -1      )
                  (     0          1         -1      )

 cart.    s(35) = (  0.0000000  0.0000000 -1.0000000 )
                  (  0.0000000 -1.0000000  0.0000000 )
                  (  1.0000000 -0.0000000  0.0000000 )


      isym = 36     inv.  90 deg rotation - cart. axis [0,-1,0]  

 cryst.   s(36) = (    -1          1          0      )
                  (    -1          0          1      )
                  (    -1          0          0      )

 cart.    s(36) = ( -0.0000000  0.0000000  1.0000000 )
                  ( -0.0000000 -1.0000000 -0.0000000 )
                  ( -1.0000000 -0.0000000 -0.0000000 )


      isym = 37     inv. 180 deg rotation - cart. axis [0,1,1]   

 cryst.   s(37) = (    -1          0          0      )
                  (    -1          1          0      )
                  (    -1          0          1      )

 cart.    s(37) = (  1.0000000 -0.0000000  0.0000000 )
                  ( -0.0000000 -0.0000000 -1.0000000 )
                  ( -0.0000000 -1.0000000 -0.0000000 )


      isym = 38     inv. 180 deg rotation - cart. axis [0,1,-1]  

 cryst.   s(38) = (     1          0          0      )
                  (     0          0          1      )
                  (     0          1          0      )

 cart.    s(38) = (  1.0000000  0.0000000 -0.0000000 )
                  ( -0.0000000  0.0000000  1.0000000 )
                  ( -0.0000000  1.0000000  0.0000000 )


      isym = 39     inv.  90 deg rotation - cart. axis [-1,0,0]  

 cryst.   s(39) = (     0          1         -1      )
                  (     0          0         -1      )
                  (     1          0         -1      )

 cart.    s(39) = ( -1.0000000  0.0000000  0.0000000 )
                  (  0.0000000  0.0000000 -1.0000000 )
                  (  0.0000000  1.0000000 -0.0000000 )


      isym = 40     inv.  90 deg rotation - cart. axis [1,0,0]   

 cryst.   s(40) = (     0         -1          1      )
                  (     1         -1          0      )
                  (     0         -1          0      )

 cart.    s(40) = ( -1.0000000 -0.0000000 -0.0000000 )
                  (  0.0000000 -0.0000000  1.0000000 )
                  (  0.0000000 -1.0000000  0.0000000 )


      isym = 41     inv. 120 deg rotation - cart. axis [-1,-1,-1]

 cryst.   s(41) = (     0          0         -1      )
                  (    -1          0          0      )
                  (     0         -1          0      )

 cart.    s(41) = ( -0.0000000 -1.0000000  0.0000000 )
                  ( -0.0000000  0.0000000 -1.0000000 )
                  ( -1.0000000  0.0000000 -0.0000000 )


      isym = 42     inv. 120 deg rotation - cart. axis [-1,1,1]  

 cryst.   s(42) = (    -1          1          0      )
                  (     0          1         -1      )
                  (     0          1          0      )

 cart.    s(42) = (  0.0000000  1.0000000  0.0000000 )
                  (  0.0000000 -0.0000000 -1.0000000 )
                  (  1.0000000 -0.0000000 -0.0000000 )


      isym = 43     inv. 120 deg rotation - cart. axis [1,1,-1]  

 cryst.   s(43) = (     1         -1          0      )
                  (     1          0          0      )
                  (     1          0         -1      )

 cart.    s(43) = (  0.0000000 -1.0000000 -0.0000000 )
                  (  0.0000000  0.0000000  1.0000000 )
                  (  1.0000000  0.0000000  0.0000000 )


      isym = 44     inv. 120 deg rotation - cart. axis [1,-1,1]  

 cryst.   s(44) = (     0          0          1      )
                  (     0         -1          1      )
                  (    -1          0          1      )

 cart.    s(44) = ( -0.0000000  1.0000000 -0.0000000 )
                  ( -0.0000000 -0.0000000  1.0000000 )
                  ( -1.0000000 -0.0000000  0.0000000 )


      isym = 45     inv. 120 deg rotation - cart. axis [1,1,1]   

 cryst.   s(45) = (     0         -1          0      )
                  (     0          0         -1      )
                  (    -1          0          0      )

 cart.    s(45) = (  0.0000000 -0.0000000 -1.0000000 )
                  ( -1.0000000 -0.0000000  0.0000000 )
                  ( -0.0000000 -1.0000000  0.0000000 )


      isym = 46     inv. 120 deg rotation - cart. axis [-1,1,-1] 

 cryst.   s(46) = (     1          0         -1      )
                  (     1         -1          0      )
                  (     1          0          0      )

 cart.    s(46) = ( -0.0000000  0.0000000 -1.0000000 )
                  (  1.0000000  0.0000000  0.0000000 )
                  (  0.0000000  1.0000000  0.0000000 )


      isym = 47     inv. 120 deg rotation - cart. axis [1,-1,-1] 

 cryst.   s(47) = (    -1          0          1      )
                  (     0          0          1      )
                  (     0         -1          1      )

 cart.    s(47) = ( -0.0000000 -0.0000000  1.0000000 )
                  (  1.0000000 -0.0000000 -0.0000000 )
                  (  0.0000000 -1.0000000 -0.0000000 )


      isym = 48     inv. 120 deg rotation - cart. axis [-1,-1,1] 

 cryst.   s(48) = (     0          1          0      )
                  (    -1          1          0      )
                  (     0          1         -1      )

 cart.    s(48) = (  0.0000000  0.0000000  1.0000000 )
                  ( -1.0000000  0.0000000 -0.0000000 )
                  ( -0.0000000  1.0000000 -0.0000000 )


   Cartesian axes

     site n.     atom                  positions (alat units)
         1        Tc     tau(   1) = (   0.0000000   0.0000000   0.0000000  )
         2        Br     tau(   2) = (   1.0738124  -0.0000000  -0.0000000  )
         3        Br     tau(   3) = (   0.7071068   0.3667056   0.0000000  )
         4        Br     tau(   4) = (   0.0000000   0.0000000   1.0738124  )
         5        Br     tau(   5) = (   0.7071068   0.0000000   1.0475080  )
         6        Br     tau(   6) = (   0.7071068   1.0475080   0.0000000  )
         7        Br     tau(   7) = (   0.3404012  -0.0000000  -0.0000000  )
         8        O      tau(   8) = (   0.3535534   0.3535534   1.0606602  )
         9        O      tau(   9) = (   0.3535534   1.0606602   1.0606602  )

   Crystallographic axes

     site n.     atom                  positions (cryst. coord.)
         1        Tc     tau(   1) = (  0.0000000  0.0000000  0.0000000  )
         2        Br     tau(   2) = ( -0.7593000  0.7593000  0.7593000  )
         3        Br     tau(   3) = ( -0.2407000  0.2407000  0.7593000  )
         4        Br     tau(   4) = (  0.7593000  0.7593000 -0.7593000  )
         5        Br     tau(   5) = (  0.2407000  1.2407000 -0.2407000  )
         6        Br     tau(   6) = (  0.2407000 -0.2407000  1.2407000  )
         7        Br     tau(   7) = ( -0.2407000  0.2407000  0.2407000  )
         8        O      tau(   8) = (  0.7500000  0.7500000 -0.2500000  )
         9        O      tau(   9) = (  1.2500000  0.2500000  0.2500000  )

     number of k points=    20  Marzari-Vanderbilt smearing, width (Ry)=  0.0200
                       cart. coord. in units 2pi/alat
        k(    1) = (   0.0000000   0.0000000   0.0000000), wk =   0.0029155
        k(    2) = (   0.1010153   0.1010153  -0.1010153), wk =   0.0233236
        k(    3) = (   0.2020305   0.2020305  -0.2020305), wk =   0.0233236
        k(    4) = (   0.3030458   0.3030458  -0.3030458), wk =   0.0233236
        k(    5) = (   0.2020305  -0.0000000   0.0000000), wk =   0.0174927
        k(    6) = (   0.3030458   0.1010153  -0.1010153), wk =   0.0699708
        k(    7) = (   0.4040610   0.2020305  -0.2020305), wk =   0.0699708
        k(    8) = (  -0.2020305  -0.4040610   0.4040610), wk =   0.0699708
        k(    9) = (  -0.1010153  -0.3030458   0.3030458), wk =   0.0699708
        k(   10) = (  -0.0000000  -0.2020305   0.2020305), wk =   0.0349854
        k(   11) = (   0.4040610  -0.0000000   0.0000000), wk =   0.0174927
        k(   12) = (   0.5050763   0.1010153  -0.1010153), wk =   0.0699708
        k(   13) = (  -0.1010153  -0.5050763   0.5050763), wk =   0.0699708
        k(   14) = (   0.0000000  -0.4040610   0.4040610), wk =   0.0349854
        k(   15) = (   0.6060915  -0.0000000   0.0000000), wk =   0.0174927
        k(   16) = (  -0.0000000  -0.6060915   0.6060915), wk =   0.0349854
        k(   17) = (   0.4040610   0.2020305   0.0000000), wk =   0.0699708
        k(   18) = (  -0.2020305  -0.4040610   0.6060915), wk =   0.1399417
        k(   19) = (  -0.1010153  -0.5050763   0.7071068), wk =   0.0699708
        k(   20) = (   0.0000000  -0.4040610   0.6060915), wk =   0.0699708

                       cryst. coord.
        k(    1) = (   0.0000000   0.0000000   0.0000000), wk =   0.0029155
        k(    2) = (  -0.0000000  -0.0000000   0.1428571), wk =   0.0233236
        k(    3) = (  -0.0000000  -0.0000000   0.2857143), wk =   0.0233236
        k(    4) = (  -0.0000000  -0.0000000   0.4285714), wk =   0.0233236
        k(    5) = (   0.0000000   0.1428571   0.1428571), wk =   0.0174927
        k(    6) = (  -0.0000000   0.1428571   0.2857143), wk =   0.0699708
        k(    7) = (  -0.0000000   0.1428571   0.4285714), wk =   0.0699708
        k(    8) = (   0.0000000   0.1428571  -0.4285714), wk =   0.0699708
        k(    9) = (   0.0000000   0.1428571  -0.2857143), wk =   0.0699708
        k(   10) = (  -0.0000000   0.1428571  -0.1428571), wk =   0.0349854
        k(   11) = (   0.0000000   0.2857143   0.2857143), wk =   0.0174927
        k(   12) = (  -0.0000000   0.2857143   0.4285714), wk =   0.0699708
        k(   13) = (  -0.0000000   0.2857143  -0.4285714), wk =   0.0699708
        k(   14) = (   0.0000000   0.2857143  -0.2857143), wk =   0.0349854
        k(   15) = (   0.0000000   0.4285714   0.4285714), wk =   0.0174927
        k(   16) = (   0.0000000   0.4285714  -0.4285714), wk =   0.0349854
        k(   17) = (   0.1428571   0.2857143   0.4285714), wk =   0.0699708
        k(   18) = (   0.1428571   0.2857143  -0.4285714), wk =   0.1399417
        k(   19) = (   0.1428571   0.4285714  -0.4285714), wk =   0.0699708
        k(   20) = (   0.1428571   0.4285714  -0.2857143), wk =   0.0699708

     Dense  grid:   257011 G-vectors     FFT dimensions: (  90,  90,  90)

     Smooth grid:    90945 G-vectors     FFT dimensions: (  64,  64,  64)

     Dynamical RAM for                 wfc:       1.04 MB

     Dynamical RAM for     wfc (w. buffer):       6.24 MB

     Dynamical RAM for           str. fact:       1.68 MB

     Dynamical RAM for           local pot:       0.00 MB

     Dynamical RAM for          nlocal pot:       3.52 MB

     Dynamical RAM for                qrad:       4.82 MB

     Dynamical RAM for          rho,v,vnew:       8.18 MB

     Dynamical RAM for               rhoin:       2.73 MB

     Dynamical RAM for            rho*nmix:      17.93 MB

     Dynamical RAM for           G-vectors:       2.20 MB

     Dynamical RAM for          h,s,v(r/c):       0.32 MB

     Dynamical RAM for          <psi|beta>:       0.09 MB

     Dynamical RAM for                 psi:       2.08 MB

     Dynamical RAM for                hpsi:       2.08 MB

     Dynamical RAM for                spsi:       2.08 MB

     Dynamical RAM for      wfcinit/wfcrot:       2.12 MB

     Dynamical RAM for           addusdens:      14.49 MB

     Dynamical RAM for          addusforce:      14.75 MB

     Dynamical RAM for         addusstress:      14.67 MB

     Estimated static dynamical RAM per process >      36.42 MB

     Estimated max dynamical RAM per process >      69.10 MB

     Estimated total dynamical RAM >       2.92 GB

     Check: negative core charge=   -0.000002
     Generating pointlists ...
     new r_m :   0.1404 (alat units)  1.9532 (a.u.) for type    1
     new r_m :   0.2063 (alat units)  2.8700 (a.u.) for type    2
     new r_m :   0.1404 (alat units)  1.9532 (a.u.) for type    3

     Initial potential from superposition of free atoms

     starting charge      68.9992, renormalised to      69.0000
     Starting wfcs are   42 randomized atomic wfcs
     Checking if some PAW data can be deallocated... 
       PAW data deallocated on   44 nodes for type:  2

     total cpu time spent up to now is        1.7 secs

     per-process dynamical memory:    50.7 Mb

     Self-consistent Calculation

     iteration #  1     ecut=    50.00 Ry     beta= 0.40
     Davidson diagonalization with overlap

---- Real-time Memory Report at c_bands before calling an iterative solver
            86 MiB given to the printing process from OS
            49 MiB allocation reported by mallinfo(arena+hblkhd)
        484739 MiB available memory on the node where the printing process lives
------------------
     ethr =  1.00E-02,  avg # of iterations =  3.9

     total cpu time spent up to now is        2.9 secs

     total energy              =    -483.18436894 Ry
     estimated scf accuracy    <       4.70272913 Ry

     total magnetization       =     4.51 Bohr mag/cell
     absolute magnetization    =     4.56 Bohr mag/cell

     iteration #  2     ecut=    50.00 Ry     beta= 0.40
     Davidson diagonalization with overlap

---- Real-time Memory Report at c_bands before calling an iterative solver
           108 MiB given to the printing process from OS
            73 MiB allocation reported by mallinfo(arena+hblkhd)
        483761 MiB available memory on the node where the printing process lives
------------------
     ethr =  6.82E-03,  avg # of iterations =  3.7

     total cpu time spent up to now is        4.2 secs

     total energy              =    -485.36679492 Ry
     estimated scf accuracy    <      35.75036930 Ry

     total magnetization       =     1.00 Bohr mag/cell
     absolute magnetization    =     1.17 Bohr mag/cell

     iteration #  3     ecut=    50.00 Ry     beta= 0.40
     Davidson diagonalization with overlap

---- Real-time Memory Report at c_bands before calling an iterative solver
           109 MiB given to the printing process from OS
            74 MiB allocation reported by mallinfo(arena+hblkhd)
        483733 MiB available memory on the node where the printing process lives
------------------
     ethr =  6.82E-03,  avg # of iterations =  2.0

     total cpu time spent up to now is        5.3 secs

     total energy              =    -485.56794122 Ry
     estimated scf accuracy    <       4.84008234 Ry

     total magnetization       =     5.23 Bohr mag/cell
     absolute magnetization    =     5.41 Bohr mag/cell

     iteration #  4     ecut=    50.00 Ry     beta= 0.40
     Davidson diagonalization with overlap

---- Real-time Memory Report at c_bands before calling an iterative solver
           111 MiB given to the printing process from OS
            75 MiB allocation reported by mallinfo(arena+hblkhd)
        483708 MiB available memory on the node where the printing process lives
------------------
     ethr =  6.82E-03,  avg # of iterations =  2.8

     total cpu time spent up to now is        6.5 secs

     total energy              =    -485.72419940 Ry
     estimated scf accuracy    <       2.24899488 Ry

     total magnetization       =     8.22 Bohr mag/cell
     absolute magnetization    =     8.34 Bohr mag/cell

     iteration #  5     ecut=    50.00 Ry     beta= 0.40
     Davidson diagonalization with overlap

---- Real-time Memory Report at c_bands before calling an iterative solver
           112 MiB given to the printing process from OS
            76 MiB allocation reported by mallinfo(arena+hblkhd)
        483683 MiB available memory on the node where the printing process lives
------------------
     ethr =  3.26E-03,  avg # of iterations =  2.2

     total cpu time spent up to now is        7.6 secs

     total energy              =    -485.76321093 Ry
     estimated scf accuracy    <       1.61563900 Ry

     total magnetization       =     8.96 Bohr mag/cell
     absolute magnetization    =     9.05 Bohr mag/cell

     iteration #  6     ecut=    50.00 Ry     beta= 0.40
     Davidson diagonalization with overlap

---- Real-time Memory Report at c_bands before calling an iterative solver
           113 MiB given to the printing process from OS
            77 MiB allocation reported by mallinfo(arena+hblkhd)
        483662 MiB available memory on the node where the printing process lives
------------------
     ethr =  2.34E-03,  avg # of iterations =  2.5

     total cpu time spent up to now is        8.9 secs

     total energy              =    -485.78527658 Ry
     estimated scf accuracy    <       0.48962014 Ry

     total magnetization       =     5.72 Bohr mag/cell
     absolute magnetization    =     5.91 Bohr mag/cell

     iteration #  7     ecut=    50.00 Ry     beta= 0.40
     Davidson diagonalization with overlap

---- Real-time Memory Report at c_bands before calling an iterative solver
           114 MiB given to the printing process from OS
            78 MiB allocation reported by mallinfo(arena+hblkhd)
        483643 MiB available memory on the node where the printing process lives
------------------
     ethr =  7.10E-04,  avg # of iterations =  4.3

     total cpu time spent up to now is       10.1 secs

     total energy              =    -485.80530535 Ry
     estimated scf accuracy    <       0.91516173 Ry

     total magnetization       =     9.32 Bohr mag/cell
     absolute magnetization    =     9.39 Bohr mag/cell

     iteration #  8     ecut=    50.00 Ry     beta= 0.40
     Davidson diagonalization with overlap

---- Real-time Memory Report at c_bands before calling an iterative solver
           115 MiB given to the printing process from OS
            78 MiB allocation reported by mallinfo(arena+hblkhd)
        483625 MiB available memory on the node where the printing process lives
------------------
     ethr =  7.10E-04,  avg # of iterations =  1.9

     total cpu time spent up to now is       11.2 secs

     total energy              =    -485.91884093 Ry
     estimated scf accuracy    <       1.16132393 Ry

     total magnetization       =     5.76 Bohr mag/cell
     absolute magnetization    =     5.95 Bohr mag/cell

     iteration #  9     ecut=    50.00 Ry     beta= 0.40
     Davidson diagonalization with overlap

---- Real-time Memory Report at c_bands before calling an iterative solver
           116 MiB given to the printing process from OS
            79 MiB allocation reported by mallinfo(arena+hblkhd)
        483608 MiB available memory on the node where the printing process lives
------------------
     ethr =  7.10E-04,  avg # of iterations =  1.0

     total cpu time spent up to now is       12.2 secs

     total energy              =    -485.88330439 Ry
     estimated scf accuracy    <       1.01563250 Ry

     total magnetization       =     5.73 Bohr mag/cell
     absolute magnetization    =     5.90 Bohr mag/cell

     iteration # 10     ecut=    50.00 Ry     beta= 0.40
     Davidson diagonalization with overlap

---- Real-time Memory Report at c_bands before calling an iterative solver
           118 MiB given to the printing process from OS
            80 MiB allocation reported by mallinfo(arena+hblkhd)
        483593 MiB available memory on the node where the printing process lives
------------------
     ethr =  7.10E-04,  avg # of iterations =  1.5

     total cpu time spent up to now is       13.3 secs

     total energy              =    -485.82878731 Ry
     estimated scf accuracy    <       0.11727712 Ry

     total magnetization       =     5.62 Bohr mag/cell
     absolute magnetization    =     5.71 Bohr mag/cell

     iteration # 11     ecut=    50.00 Ry     beta= 0.40
     Davidson diagonalization with overlap

---- Real-time Memory Report at c_bands before calling an iterative solver
           118 MiB given to the printing process from OS
            80 MiB allocation reported by mallinfo(arena+hblkhd)
        483588 MiB available memory on the node where the printing process lives
------------------
     ethr =  1.70E-04,  avg # of iterations =  2.7

     total cpu time spent up to now is       14.5 secs

     total energy              =    -485.90067131 Ry
     estimated scf accuracy    <       0.31092570 Ry

     total magnetization       =     5.94 Bohr mag/cell
     absolute magnetization    =     6.04 Bohr mag/cell

     iteration # 12     ecut=    50.00 Ry     beta= 0.40
     Davidson diagonalization with overlap

---- Real-time Memory Report at c_bands before calling an iterative solver
           118 MiB given to the printing process from OS
            80 MiB allocation reported by mallinfo(arena+hblkhd)
        483581 MiB available memory on the node where the printing process lives
------------------
     ethr =  1.70E-04,  avg # of iterations =  1.6

     total cpu time spent up to now is       15.6 secs

     total energy              =    -485.92357871 Ry
     estimated scf accuracy    <       0.02400571 Ry

     total magnetization       =     6.16 Bohr mag/cell
     absolute magnetization    =     6.23 Bohr mag/cell

     iteration # 13     ecut=    50.00 Ry     beta= 0.40
     Davidson diagonalization with overlap

---- Real-time Memory Report at c_bands before calling an iterative solver
           118 MiB given to the printing process from OS
            80 MiB allocation reported by mallinfo(arena+hblkhd)
        483570 MiB available memory on the node where the printing process lives
------------------
     ethr =  3.48E-05,  avg # of iterations =  3.9

     total cpu time spent up to now is       16.9 secs

     total energy              =    -485.92462883 Ry
     estimated scf accuracy    <       0.01222995 Ry

     total magnetization       =     6.24 Bohr mag/cell
     absolute magnetization    =     6.31 Bohr mag/cell

     iteration # 14     ecut=    50.00 Ry     beta= 0.40
     Davidson diagonalization with overlap

---- Real-time Memory Report at c_bands before calling an iterative solver
           118 MiB given to the printing process from OS
            80 MiB allocation reported by mallinfo(arena+hblkhd)
        483562 MiB available memory on the node where the printing process lives
------------------
     ethr =  1.77E-05,  avg # of iterations =  4.5

     total cpu time spent up to now is       18.2 secs

     total energy              =    -485.92482385 Ry
     estimated scf accuracy    <       0.01277756 Ry

     total magnetization       =     6.20 Bohr mag/cell
     absolute magnetization    =     6.26 Bohr mag/cell

     iteration # 15     ecut=    50.00 Ry     beta= 0.40
     Davidson diagonalization with overlap

---- Real-time Memory Report at c_bands before calling an iterative solver
           119 MiB given to the printing process from OS
            80 MiB allocation reported by mallinfo(arena+hblkhd)
        483558 MiB available memory on the node where the printing process lives
------------------
     ethr =  1.77E-05,  avg # of iterations =  1.6

     total cpu time spent up to now is       19.3 secs

     total energy              =    -485.92592470 Ry
     estimated scf accuracy    <       0.00779688 Ry

     total magnetization       =     6.45 Bohr mag/cell
     absolute magnetization    =     6.50 Bohr mag/cell

     iteration # 16     ecut=    50.00 Ry     beta= 0.40
     Davidson diagonalization with overlap

---- Real-time Memory Report at c_bands before calling an iterative solver
           119 MiB given to the printing process from OS
            80 MiB allocation reported by mallinfo(arena+hblkhd)
        483552 MiB available memory on the node where the printing process lives
------------------
     ethr =  1.13E-05,  avg # of iterations =  2.3

     total cpu time spent up to now is       20.4 secs

     total energy              =    -485.92644131 Ry
     estimated scf accuracy    <       0.00658788 Ry

     total magnetization       =     6.36 Bohr mag/cell
     absolute magnetization    =     6.41 Bohr mag/cell

     iteration # 17     ecut=    50.00 Ry     beta= 0.40
     Davidson diagonalization with overlap

---- Real-time Memory Report at c_bands before calling an iterative solver
           119 MiB given to the printing process from OS
            80 MiB allocation reported by mallinfo(arena+hblkhd)
        483545 MiB available memory on the node where the printing process lives
------------------
     ethr =  9.55E-06,  avg # of iterations =  2.4

     total cpu time spent up to now is       21.7 secs

     total energy              =    -485.92677455 Ry
     estimated scf accuracy    <       0.00388755 Ry

     total magnetization       =     6.33 Bohr mag/cell
     absolute magnetization    =     6.38 Bohr mag/cell

     iteration # 18     ecut=    50.00 Ry     beta= 0.40
     Davidson diagonalization with overlap

---- Real-time Memory Report at c_bands before calling an iterative solver
           119 MiB given to the printing process from OS
            80 MiB allocation reported by mallinfo(arena+hblkhd)
        483533 MiB available memory on the node where the printing process lives
------------------
     ethr =  5.63E-06,  avg # of iterations =  3.0

     total cpu time spent up to now is       23.0 secs

     total energy              =    -485.92653190 Ry
     estimated scf accuracy    <       0.00800802 Ry

     total magnetization       =     6.40 Bohr mag/cell
     absolute magnetization    =     6.44 Bohr mag/cell

     iteration # 19     ecut=    50.00 Ry     beta= 0.40
     Davidson diagonalization with overlap

---- Real-time Memory Report at c_bands before calling an iterative solver
           119 MiB given to the printing process from OS
            80 MiB allocation reported by mallinfo(arena+hblkhd)
        483533 MiB available memory on the node where the printing process lives
------------------
     ethr =  5.63E-06,  avg # of iterations =  1.6

     total cpu time spent up to now is       24.1 secs

     total energy              =    -485.92571163 Ry
     estimated scf accuracy    <       0.00959534 Ry

     total magnetization       =     6.46 Bohr mag/cell
     absolute magnetization    =     6.51 Bohr mag/cell

     iteration # 20     ecut=    50.00 Ry     beta= 0.40
     Davidson diagonalization with overlap

---- Real-time Memory Report at c_bands before calling an iterative solver
           119 MiB given to the printing process from OS
            80 MiB allocation reported by mallinfo(arena+hblkhd)
        483533 MiB available memory on the node where the printing process lives
------------------
     ethr =  5.63E-06,  avg # of iterations =  2.1

     total cpu time spent up to now is       25.2 secs

     total energy              =    -485.92610372 Ry
     estimated scf accuracy    <       0.01131420 Ry

     total magnetization       =     6.50 Bohr mag/cell
     absolute magnetization    =     6.55 Bohr mag/cell

     iteration # 21     ecut=    50.00 Ry     beta= 0.40
     Davidson diagonalization with overlap

---- Real-time Memory Report at c_bands before calling an iterative solver
           119 MiB given to the printing process from OS
            80 MiB allocation reported by mallinfo(arena+hblkhd)
        483532 MiB available memory on the node where the printing process lives
------------------
     ethr =  5.63E-06,  avg # of iterations =  2.4

     total cpu time spent up to now is       26.4 secs

     total energy              =    -485.92709828 Ry
     estimated scf accuracy    <       0.00043319 Ry

     total magnetization       =     6.07 Bohr mag/cell
     absolute magnetization    =     6.12 Bohr mag/cell

     iteration # 22     ecut=    50.00 Ry     beta= 0.40
     Davidson diagonalization with overlap

---- Real-time Memory Report at c_bands before calling an iterative solver
           119 MiB given to the printing process from OS
            80 MiB allocation reported by mallinfo(arena+hblkhd)
        483546 MiB available memory on the node where the printing process lives
------------------
     ethr =  6.28E-07,  avg # of iterations =  8.2

     total cpu time spent up to now is       28.2 secs

     total energy              =    -485.92716606 Ry
     estimated scf accuracy    <       0.00025263 Ry

     total magnetization       =     5.89 Bohr mag/cell
     absolute magnetization    =     5.93 Bohr mag/cell

     iteration # 23     ecut=    50.00 Ry     beta= 0.40
     Davidson diagonalization with overlap

---- Real-time Memory Report at c_bands before calling an iterative solver
           119 MiB given to the printing process from OS
            80 MiB allocation reported by mallinfo(arena+hblkhd)
        483545 MiB available memory on the node where the printing process lives
------------------
     ethr =  3.66E-07,  avg # of iterations =  4.6

     total cpu time spent up to now is       29.7 secs

     total energy              =    -485.92760659 Ry
     estimated scf accuracy    <       0.00008123 Ry

     total magnetization       =     5.68 Bohr mag/cell
     absolute magnetization    =     5.71 Bohr mag/cell

     iteration # 24     ecut=    50.00 Ry     beta= 0.40
     Davidson diagonalization with overlap

---- Real-time Memory Report at c_bands before calling an iterative solver
           119 MiB given to the printing process from OS
            80 MiB allocation reported by mallinfo(arena+hblkhd)
        483540 MiB available memory on the node where the printing process lives
------------------
     ethr =  1.18E-07,  avg # of iterations =  4.0

     total cpu time spent up to now is       31.1 secs

     total energy              =    -485.92764942 Ry
     estimated scf accuracy    <       0.00002295 Ry

     total magnetization       =     5.64 Bohr mag/cell
     absolute magnetization    =     5.68 Bohr mag/cell

     iteration # 25     ecut=    50.00 Ry     beta= 0.40
     Davidson diagonalization with overlap

---- Real-time Memory Report at c_bands before calling an iterative solver
           119 MiB given to the printing process from OS
            80 MiB allocation reported by mallinfo(arena+hblkhd)
        483538 MiB available memory on the node where the printing process lives
------------------
     ethr =  3.33E-08,  avg # of iterations =  4.7

     total cpu time spent up to now is       32.7 secs

     total energy              =    -485.92740919 Ry
     estimated scf accuracy    <       0.00002728 Ry

     total magnetization       =     5.61 Bohr mag/cell
     absolute magnetization    =     5.64 Bohr mag/cell

     iteration # 26     ecut=    50.00 Ry     beta= 0.40
     Davidson diagonalization with overlap

---- Real-time Memory Report at c_bands before calling an iterative solver
           119 MiB given to the printing process from OS
            80 MiB allocation reported by mallinfo(arena+hblkhd)
        483534 MiB available memory on the node where the printing process lives
------------------
     ethr =  3.33E-08,  avg # of iterations =  3.7

     total cpu time spent up to now is       34.0 secs

     total energy              =    -485.92747700 Ry
     estimated scf accuracy    <       0.00000885 Ry

     total magnetization       =     5.75 Bohr mag/cell
     absolute magnetization    =     5.78 Bohr mag/cell

     iteration # 27     ecut=    50.00 Ry     beta= 0.40
     Davidson diagonalization with overlap

---- Real-time Memory Report at c_bands before calling an iterative solver
           119 MiB given to the printing process from OS
            80 MiB allocation reported by mallinfo(arena+hblkhd)
        483530 MiB available memory on the node where the printing process lives
------------------
     ethr =  1.28E-08,  avg # of iterations =  5.4

     total cpu time spent up to now is       35.6 secs

     total energy              =    -485.92742583 Ry
     estimated scf accuracy    <       0.00000988 Ry

     total magnetization       =     5.82 Bohr mag/cell
     absolute magnetization    =     5.86 Bohr mag/cell

     iteration # 28     ecut=    50.00 Ry     beta= 0.40
     Davidson diagonalization with overlap

---- Real-time Memory Report at c_bands before calling an iterative solver
           120 MiB given to the printing process from OS
            80 MiB allocation reported by mallinfo(arena+hblkhd)
        483527 MiB available memory on the node where the printing process lives
------------------
     ethr =  1.28E-08,  avg # of iterations =  5.2

     total cpu time spent up to now is       37.2 secs

     total energy              =    -485.92738777 Ry
     estimated scf accuracy    <       0.00001429 Ry

     total magnetization       =     5.67 Bohr mag/cell
     absolute magnetization    =     5.70 Bohr mag/cell

     iteration # 29     ecut=    50.00 Ry     beta= 0.40
     Davidson diagonalization with overlap

---- Real-time Memory Report at c_bands before calling an iterative solver
           120 MiB given to the printing process from OS
            80 MiB allocation reported by mallinfo(arena+hblkhd)
        483526 MiB available memory on the node where the printing process lives
------------------
     ethr =  1.28E-08,  avg # of iterations =  6.3

     total cpu time spent up to now is       39.1 secs

     total energy              =    -485.92688939 Ry
     estimated scf accuracy    <       0.00005625 Ry

     total magnetization       =     5.44 Bohr mag/cell
     absolute magnetization    =     5.47 Bohr mag/cell

     iteration # 30     ecut=    50.00 Ry     beta= 0.40
     Davidson diagonalization with overlap

---- Real-time Memory Report at c_bands before calling an iterative solver
           120 MiB given to the printing process from OS
            80 MiB allocation reported by mallinfo(arena+hblkhd)
        483526 MiB available memory on the node where the printing process lives
------------------
     ethr =  1.28E-08,  avg # of iterations =  5.9

     total cpu time spent up to now is       40.9 secs

     total energy              =    -485.92644587 Ry
     estimated scf accuracy    <       0.00009574 Ry

     total magnetization       =     5.74 Bohr mag/cell
     absolute magnetization    =     5.77 Bohr mag/cell

     iteration # 31     ecut=    50.00 Ry     beta= 0.40
     Davidson diagonalization with overlap

---- Real-time Memory Report at c_bands before calling an iterative solver
           120 MiB given to the printing process from OS
            80 MiB allocation reported by mallinfo(arena+hblkhd)
        483523 MiB available memory on the node where the printing process lives
------------------
     ethr =  1.28E-08,  avg # of iterations =  6.8

     total cpu time spent up to now is       43.0 secs

     total energy              =    -485.92736147 Ry
     estimated scf accuracy    <       0.00010312 Ry

     total magnetization       =     6.06 Bohr mag/cell
     absolute magnetization    =     6.10 Bohr mag/cell

     iteration # 32     ecut=    50.00 Ry     beta= 0.40
     Davidson diagonalization with overlap

---- Real-time Memory Report at c_bands before calling an iterative solver
           120 MiB given to the printing process from OS
            80 MiB allocation reported by mallinfo(arena+hblkhd)
        483523 MiB available memory on the node where the printing process lives
------------------
     ethr =  1.28E-08,  avg # of iterations =  3.1

     total cpu time spent up to now is       44.3 secs

     total energy              =    -485.92699272 Ry
     estimated scf accuracy    <       0.00008210 Ry

     total magnetization       =     5.99 Bohr mag/cell
     absolute magnetization    =     6.03 Bohr mag/cell

     iteration # 33     ecut=    50.00 Ry     beta= 0.40
     Davidson diagonalization with overlap

---- Real-time Memory Report at c_bands before calling an iterative solver
           120 MiB given to the printing process from OS
            80 MiB allocation reported by mallinfo(arena+hblkhd)
        483522 MiB available memory on the node where the printing process lives
------------------
     ethr =  1.28E-08,  avg # of iterations =  5.2

     total cpu time spent up to now is       45.8 secs

     total energy              =    -485.92669060 Ry
     estimated scf accuracy    <       0.00011521 Ry

     total magnetization       =     6.15 Bohr mag/cell
     absolute magnetization    =     6.19 Bohr mag/cell

     iteration # 34     ecut=    50.00 Ry     beta= 0.40
     Davidson diagonalization with overlap

---- Real-time Memory Report at c_bands before calling an iterative solver
           120 MiB given to the printing process from OS
            80 MiB allocation reported by mallinfo(arena+hblkhd)
        483522 MiB available memory on the node where the printing process lives
------------------
     ethr =  1.28E-08,  avg # of iterations =  6.3

     total cpu time spent up to now is       47.7 secs

     total energy              =    -485.92665773 Ry
     estimated scf accuracy    <       0.00001798 Ry

     total magnetization       =     5.82 Bohr mag/cell
     absolute magnetization    =     5.85 Bohr mag/cell

     iteration # 35     ecut=    50.00 Ry     beta= 0.40
     Davidson diagonalization with overlap

---- Real-time Memory Report at c_bands before calling an iterative solver
           120 MiB given to the printing process from OS
            80 MiB allocation reported by mallinfo(arena+hblkhd)
        483517 MiB available memory on the node where the printing process lives
------------------
     ethr =  1.28E-08,  avg # of iterations =  7.5

     total cpu time spent up to now is       49.9 secs

     total energy              =    -485.92734316 Ry
     estimated scf accuracy    <       0.00006534 Ry

     total magnetization       =     5.44 Bohr mag/cell
     absolute magnetization    =     5.47 Bohr mag/cell

     iteration # 36     ecut=    50.00 Ry     beta= 0.40
     Davidson diagonalization with overlap

---- Real-time Memory Report at c_bands before calling an iterative solver
           120 MiB given to the printing process from OS
            80 MiB allocation reported by mallinfo(arena+hblkhd)
        483517 MiB available memory on the node where the printing process lives
------------------
     ethr =  1.28E-08,  avg # of iterations =  5.7

     total cpu time spent up to now is       51.5 secs

     total energy              =    -485.92758592 Ry
     estimated scf accuracy    <       0.00003250 Ry

     total magnetization       =     5.64 Bohr mag/cell
     absolute magnetization    =     5.67 Bohr mag/cell

     iteration # 37     ecut=    50.00 Ry     beta= 0.40
     Davidson diagonalization with overlap

---- Real-time Memory Report at c_bands before calling an iterative solver
           120 MiB given to the printing process from OS
            80 MiB allocation reported by mallinfo(arena+hblkhd)
        483517 MiB available memory on the node where the printing process lives
------------------
     ethr =  1.28E-08,  avg # of iterations =  5.2

     total cpu time spent up to now is       53.0 secs

     total energy              =    -485.92762836 Ry
     estimated scf accuracy    <       0.00004196 Ry

     total magnetization       =     5.48 Bohr mag/cell
     absolute magnetization    =     5.51 Bohr mag/cell

     iteration # 38     ecut=    50.00 Ry     beta= 0.40
     Davidson diagonalization with overlap

---- Real-time Memory Report at c_bands before calling an iterative solver
           120 MiB given to the printing process from OS
            80 MiB allocation reported by mallinfo(arena+hblkhd)
        483517 MiB available memory on the node where the printing process lives
------------------
     ethr =  1.28E-08,  avg # of iterations =  4.0

     total cpu time spent up to now is       54.3 secs

     total energy              =    -485.92759876 Ry
     estimated scf accuracy    <       0.00002423 Ry

     total magnetization       =     5.57 Bohr mag/cell
     absolute magnetization    =     5.60 Bohr mag/cell

     iteration # 39     ecut=    50.00 Ry     beta= 0.40
     Davidson diagonalization with overlap

---- Real-time Memory Report at c_bands before calling an iterative solver
           120 MiB given to the printing process from OS
            80 MiB allocation reported by mallinfo(arena+hblkhd)
        483517 MiB available memory on the node where the printing process lives
------------------
     ethr =  1.28E-08,  avg # of iterations =  3.9

     total cpu time spent up to now is       55.7 secs

     total energy              =    -485.92478167 Ry
     estimated scf accuracy    <       0.00002147 Ry

     total magnetization       =     5.65 Bohr mag/cell
     absolute magnetization    =     5.68 Bohr mag/cell

     iteration # 40     ecut=    50.00 Ry     beta= 0.40
     Davidson diagonalization with overlap

---- Real-time Memory Report at c_bands before calling an iterative solver
           120 MiB given to the printing process from OS
            80 MiB allocation reported by mallinfo(arena+hblkhd)
        483517 MiB available memory on the node where the printing process lives
------------------
     ethr =  1.28E-08,  avg # of iterations =  8.9

     total cpu time spent up to now is       58.1 secs

     total energy              =    -485.92846368 Ry
     estimated scf accuracy    <       0.00098270 Ry

     total magnetization       =     4.97 Bohr mag/cell
     absolute magnetization    =     5.00 Bohr mag/cell

     iteration # 41     ecut=    50.00 Ry     beta= 0.40
     Davidson diagonalization with overlap

---- Real-time Memory Report at c_bands before calling an iterative solver
           120 MiB given to the printing process from OS
            80 MiB allocation reported by mallinfo(arena+hblkhd)
        483517 MiB available memory on the node where the printing process lives
------------------
     ethr =  1.28E-08,  avg # of iterations =  2.0

     total cpu time spent up to now is       59.2 secs

     total energy              =    -485.92808594 Ry
     estimated scf accuracy    <       0.00102391 Ry

     total magnetization       =     5.01 Bohr mag/cell
     absolute magnetization    =     5.04 Bohr mag/cell

     iteration # 42     ecut=    50.00 Ry     beta= 0.40
     Davidson diagonalization with overlap

---- Real-time Memory Report at c_bands before calling an iterative solver
           120 MiB given to the printing process from OS
            80 MiB allocation reported by mallinfo(arena+hblkhd)
        483517 MiB available memory on the node where the printing process lives
------------------
     ethr =  1.28E-08,  avg # of iterations =  4.3

     total cpu time spent up to now is       60.6 secs

     total energy              =    -485.91284909 Ry
     estimated scf accuracy    <       0.00058884 Ry

     total magnetization       =     5.14 Bohr mag/cell
     absolute magnetization    =     5.16 Bohr mag/cell

     iteration # 43     ecut=    50.00 Ry     beta= 0.40
     Davidson diagonalization with overlap

---- Real-time Memory Report at c_bands before calling an iterative solver
           120 MiB given to the printing process from OS
            80 MiB allocation reported by mallinfo(arena+hblkhd)
        483516 MiB available memory on the node where the printing process lives
------------------
     ethr =  1.28E-08,  avg # of iterations = 11.9

     total cpu time spent up to now is       64.0 secs

     total energy              =    -485.92587104 Ry
     estimated scf accuracy    <       0.00032352 Ry

     total magnetization       =     6.38 Bohr mag/cell
     absolute magnetization    =     6.43 Bohr mag/cell

     iteration # 44     ecut=    50.00 Ry     beta= 0.40
     Davidson diagonalization with overlap

---- Real-time Memory Report at c_bands before calling an iterative solver
           120 MiB given to the printing process from OS
            80 MiB allocation reported by mallinfo(arena+hblkhd)
        483516 MiB available memory on the node where the printing process lives
------------------
     ethr =  1.28E-08,  avg # of iterations =  6.0

     total cpu time spent up to now is       65.9 secs

     total energy              =    -485.92623453 Ry
     estimated scf accuracy    <       0.00084668 Ry

     total magnetization       =     6.60 Bohr mag/cell
     absolute magnetization    =     6.66 Bohr mag/cell

     iteration # 45     ecut=    50.00 Ry     beta= 0.40
     Davidson diagonalization with overlap

---- Real-time Memory Report at c_bands before calling an iterative solver
           120 MiB given to the printing process from OS
            80 MiB allocation reported by mallinfo(arena+hblkhd)
        483512 MiB available memory on the node where the printing process lives
------------------
     ethr =  1.28E-08,  avg # of iterations =  1.5

     total cpu time spent up to now is       67.0 secs

     total energy              =    -485.92582742 Ry
     estimated scf accuracy    <       0.00050732 Ry

     total magnetization       =     6.58 Bohr mag/cell
     absolute magnetization    =     6.64 Bohr mag/cell

     iteration # 46     ecut=    50.00 Ry     beta= 0.40
     Davidson diagonalization with overlap

---- Real-time Memory Report at c_bands before calling an iterative solver
           120 MiB given to the printing process from OS
            80 MiB allocation reported by mallinfo(arena+hblkhd)
        483512 MiB available memory on the node where the printing process lives
------------------
     ethr =  1.28E-08,  avg # of iterations =  4.5

     total cpu time spent up to now is       68.5 secs

     total energy              =    -485.92448033 Ry
     estimated scf accuracy    <       0.00071583 Ry

     total magnetization       =     6.67 Bohr mag/cell
     absolute magnetization    =     6.73 Bohr mag/cell

     iteration # 47     ecut=    50.00 Ry     beta= 0.40
     Davidson diagonalization with overlap

---- Real-time Memory Report at c_bands before calling an iterative solver
           120 MiB given to the printing process from OS
            80 MiB allocation reported by mallinfo(arena+hblkhd)
        483512 MiB available memory on the node where the printing process lives
------------------
     ethr =  1.28E-08,  avg # of iterations =  8.7

     total cpu time spent up to now is       71.1 secs

     total energy              =    -485.91903840 Ry
     estimated scf accuracy    <       0.00008343 Ry

     total magnetization       =     6.08 Bohr mag/cell
     absolute magnetization    =     6.12 Bohr mag/cell

     iteration # 48     ecut=    50.00 Ry     beta= 0.40
     Davidson diagonalization with overlap

---- Real-time Memory Report at c_bands before calling an iterative solver
           120 MiB given to the printing process from OS
            80 MiB allocation reported by mallinfo(arena+hblkhd)
        483512 MiB available memory on the node where the printing process lives
------------------
     ethr =  1.28E-08,  avg # of iterations = 12.0

     total cpu time spent up to now is       74.2 secs

     total energy              =    -485.92346537 Ry
     estimated scf accuracy    <       0.00068856 Ry

     total magnetization       =     4.96 Bohr mag/cell
     absolute magnetization    =     4.99 Bohr mag/cell

     iteration # 49     ecut=    50.00 Ry     beta= 0.40
     Davidson diagonalization with overlap

---- Real-time Memory Report at c_bands before calling an iterative solver
           120 MiB given to the printing process from OS
            80 MiB allocation reported by mallinfo(arena+hblkhd)
        483510 MiB available memory on the node where the printing process lives
------------------
     ethr =  1.28E-08,  avg # of iterations =  9.3

     total cpu time spent up to now is       76.8 secs

     total energy              =    -485.92732899 Ry
     estimated scf accuracy    <       0.00001627 Ry

     total magnetization       =     5.65 Bohr mag/cell
     absolute magnetization    =     5.68 Bohr mag/cell

     iteration # 50     ecut=    50.00 Ry     beta= 0.40
     Davidson diagonalization with overlap

---- Real-time Memory Report at c_bands before calling an iterative solver
           120 MiB given to the printing process from OS
            80 MiB allocation reported by mallinfo(arena+hblkhd)
        483510 MiB available memory on the node where the printing process lives
------------------
     ethr =  1.28E-08,  avg # of iterations =  6.0

     total cpu time spent up to now is       78.6 secs

     total energy              =    -485.90850337 Ry
     estimated scf accuracy    <       0.00002495 Ry

     total magnetization       =     5.39 Bohr mag/cell
     absolute magnetization    =     5.41 Bohr mag/cell

     iteration # 51     ecut=    50.00 Ry     beta= 0.40
     Davidson diagonalization with overlap

---- Real-time Memory Report at c_bands before calling an iterative solver
           120 MiB given to the printing process from OS
            80 MiB allocation reported by mallinfo(arena+hblkhd)
        483510 MiB available memory on the node where the printing process lives
------------------
     ethr =  1.28E-08,  avg # of iterations = 12.9

     total cpu time spent up to now is       82.2 secs

     total energy              =    -485.92414841 Ry
     estimated scf accuracy    <       0.00112277 Ry

     total magnetization       =     6.79 Bohr mag/cell
     absolute magnetization    =     6.85 Bohr mag/cell

     iteration # 52     ecut=    50.00 Ry     beta= 0.40
     Davidson diagonalization with overlap

---- Real-time Memory Report at c_bands before calling an iterative solver
           120 MiB given to the printing process from OS
            80 MiB allocation reported by mallinfo(arena+hblkhd)
        483510 MiB available memory on the node where the printing process lives
------------------
     ethr =  1.28E-08,  avg # of iterations =  5.8

     total cpu time spent up to now is       84.0 secs

     total energy              =    -485.91628495 Ry
     estimated scf accuracy    <       0.00163410 Ry

     total magnetization       =     6.97 Bohr mag/cell
     absolute magnetization    =     7.04 Bohr mag/cell

     iteration # 53     ecut=    50.00 Ry     beta= 0.40
     Davidson diagonalization with overlap

---- Real-time Memory Report at c_bands before calling an iterative solver
           120 MiB given to the printing process from OS
            80 MiB allocation reported by mallinfo(arena+hblkhd)
        483509 MiB available memory on the node where the printing process lives
------------------
     ethr =  1.28E-08,  avg # of iterations = 12.1

     total cpu time spent up to now is       87.5 secs

     total energy              =    -485.92720918 Ry
     estimated scf accuracy    <       0.00001220 Ry

     total magnetization       =     5.73 Bohr mag/cell
     absolute magnetization    =     5.76 Bohr mag/cell

     iteration # 54     ecut=    50.00 Ry     beta= 0.40
     Davidson diagonalization with overlap

---- Real-time Memory Report at c_bands before calling an iterative solver
           120 MiB given to the printing process from OS
            80 MiB allocation reported by mallinfo(arena+hblkhd)
        483508 MiB available memory on the node where the printing process lives
------------------
     ethr =  1.28E-08,  avg # of iterations =  5.5

     total cpu time spent up to now is       89.0 secs

     total energy              =    -485.92741522 Ry
     estimated scf accuracy    <       0.00004309 Ry

     total magnetization       =     5.91 Bohr mag/cell
     absolute magnetization    =     5.95 Bohr mag/cell

     iteration # 55     ecut=    50.00 Ry     beta= 0.40
     Davidson diagonalization with overlap

---- Real-time Memory Report at c_bands before calling an iterative solver
           120 MiB given to the printing process from OS
            80 MiB allocation reported by mallinfo(arena+hblkhd)
        483508 MiB available memory on the node where the printing process lives
------------------
     ethr =  1.28E-08,  avg # of iterations =  4.4

     total cpu time spent up to now is       90.5 secs

     total energy              =    -485.92730360 Ry
     estimated scf accuracy    <       0.00002058 Ry

     total magnetization       =     5.78 Bohr mag/cell
     absolute magnetization    =     5.81 Bohr mag/cell

     iteration # 56     ecut=    50.00 Ry     beta= 0.40
     Davidson diagonalization with overlap

---- Real-time Memory Report at c_bands before calling an iterative solver
           120 MiB given to the printing process from OS
            80 MiB allocation reported by mallinfo(arena+hblkhd)
        483507 MiB available memory on the node where the printing process lives
------------------
     ethr =  1.28E-08,  avg # of iterations =  6.1

     total cpu time spent up to now is       92.3 secs

     total energy              =    -485.92768381 Ry
     estimated scf accuracy    <       0.00003817 Ry

     total magnetization       =     5.55 Bohr mag/cell
     absolute magnetization    =     5.58 Bohr mag/cell

     iteration # 57     ecut=    50.00 Ry     beta= 0.40
     Davidson diagonalization with overlap

---- Real-time Memory Report at c_bands before calling an iterative solver
           120 MiB given to the printing process from OS
            80 MiB allocation reported by mallinfo(arena+hblkhd)
        483507 MiB available memory on the node where the printing process lives
------------------
     ethr =  1.28E-08,  avg # of iterations =  5.8

     total cpu time spent up to now is       93.9 secs

     total energy              =    -485.92786531 Ry
     estimated scf accuracy    <       0.00005777 Ry

     total magnetization       =     5.41 Bohr mag/cell
     absolute magnetization    =     5.44 Bohr mag/cell

     iteration # 58     ecut=    50.00 Ry     beta= 0.40
     Davidson diagonalization with overlap

---- Real-time Memory Report at c_bands before calling an iterative solver
           120 MiB given to the printing process from OS
            80 MiB allocation reported by mallinfo(arena+hblkhd)
        483507 MiB available memory on the node where the printing process lives
------------------
     ethr =  1.28E-08,  avg # of iterations =  2.9

     total cpu time spent up to now is       95.2 secs

     total energy              =    -485.92726675 Ry
     estimated scf accuracy    <       0.00006648 Ry

     total magnetization       =     5.36 Bohr mag/cell
     absolute magnetization    =     5.38 Bohr mag/cell

     iteration # 59     ecut=    50.00 Ry     beta= 0.40
     Davidson diagonalization with overlap

---- Real-time Memory Report at c_bands before calling an iterative solver
           120 MiB given to the printing process from OS
            80 MiB allocation reported by mallinfo(arena+hblkhd)
        483507 MiB available memory on the node where the printing process lives
------------------
     ethr =  1.28E-08,  avg # of iterations =  7.0

     total cpu time spent up to now is       97.3 secs

     total energy              =    -485.92868924 Ry
     estimated scf accuracy    <       0.00056458 Ry

     total magnetization       =     4.96 Bohr mag/cell
     absolute magnetization    =     4.99 Bohr mag/cell

     iteration # 60     ecut=    50.00 Ry     beta= 0.40
     Davidson diagonalization with overlap

---- Real-time Memory Report at c_bands before calling an iterative solver
           120 MiB given to the printing process from OS
            80 MiB allocation reported by mallinfo(arena+hblkhd)
        483505 MiB available memory on the node where the printing process lives
------------------
     ethr =  1.28E-08,  avg # of iterations =  6.0

     total cpu time spent up to now is       99.1 secs

     total energy              =    -485.92845819 Ry
     estimated scf accuracy    <       0.00152054 Ry

     total magnetization       =     4.76 Bohr mag/cell
     absolute magnetization    =     4.80 Bohr mag/cell

     iteration # 61     ecut=    50.00 Ry     beta= 0.40
     Davidson diagonalization with overlap

---- Real-time Memory Report at c_bands before calling an iterative solver
           120 MiB given to the printing process from OS
            80 MiB allocation reported by mallinfo(arena+hblkhd)
        483505 MiB available memory on the node where the printing process lives
------------------
     ethr =  1.28E-08,  avg # of iterations =  4.7

     total cpu time spent up to now is      100.5 secs

     total energy              =    -485.90994029 Ry
     estimated scf accuracy    <       0.00079754 Ry

     total magnetization       =     4.91 Bohr mag/cell
     absolute magnetization    =     4.94 Bohr mag/cell

     iteration # 62     ecut=    50.00 Ry     beta= 0.40
     Davidson diagonalization with overlap

---- Real-time Memory Report at c_bands before calling an iterative solver
           120 MiB given to the printing process from OS
            80 MiB allocation reported by mallinfo(arena+hblkhd)
        483505 MiB available memory on the node where the printing process lives
------------------
     ethr =  1.28E-08,  avg # of iterations = 12.8

     total cpu time spent up to now is      104.0 secs

     total energy              =    -485.92646345 Ry
     estimated scf accuracy    <       0.00027700 Ry

     total magnetization       =     6.30 Bohr mag/cell
     absolute magnetization    =     6.35 Bohr mag/cell

     iteration # 63     ecut=    50.00 Ry     beta= 0.40
     Davidson diagonalization with overlap

---- Real-time Memory Report at c_bands before calling an iterative solver
           120 MiB given to the printing process from OS
            80 MiB allocation reported by mallinfo(arena+hblkhd)
        483504 MiB available memory on the node where the printing process lives
------------------
     ethr =  1.28E-08,  avg # of iterations =  7.2

     total cpu time spent up to now is      106.1 secs

     total energy              =    -485.92573601 Ry
     estimated scf accuracy    <       0.00006522 Ry

     total magnetization       =     5.94 Bohr mag/cell
     absolute magnetization    =     5.98 Bohr mag/cell

     iteration # 64     ecut=    50.00 Ry     beta= 0.40
     Davidson diagonalization with overlap

---- Real-time Memory Report at c_bands before calling an iterative solver
           120 MiB given to the printing process from OS
            80 MiB allocation reported by mallinfo(arena+hblkhd)
        483504 MiB available memory on the node where the printing process lives
------------------
     ethr =  1.28E-08,  avg # of iterations =  8.5

     total cpu time spent up to now is      108.5 secs

     total energy              =    -485.92393058 Ry
     estimated scf accuracy    <       0.00003757 Ry

     total magnetization       =     5.42 Bohr mag/cell
     absolute magnetization    =     5.45 Bohr mag/cell

     iteration # 65     ecut=    50.00 Ry     beta= 0.40
     Davidson diagonalization with overlap

---- Real-time Memory Report at c_bands before calling an iterative solver
           120 MiB given to the printing process from OS
            80 MiB allocation reported by mallinfo(arena+hblkhd)
        483504 MiB available memory on the node where the printing process lives
------------------
     ethr =  1.28E-08,  avg # of iterations =  9.9

     total cpu time spent up to now is      111.3 secs

     total energy              =    -485.93036608 Ry
     estimated scf accuracy    <       0.00391844 Ry

     total magnetization       =     4.59 Bohr mag/cell
     absolute magnetization    =     4.63 Bohr mag/cell

     iteration # 66     ecut=    50.00 Ry     beta= 0.40
     Davidson diagonalization with overlap

---- Real-time Memory Report at c_bands before calling an iterative solver
           120 MiB given to the printing process from OS
            80 MiB allocation reported by mallinfo(arena+hblkhd)
        483503 MiB available memory on the node where the printing process lives
------------------
     ethr =  1.28E-08,  avg # of iterations =  6.5

     total cpu time spent up to now is      113.2 secs

     total energy              =    -485.90326107 Ry
     estimated scf accuracy    <       0.00967655 Ry

     total magnetization       =     4.39 Bohr mag/cell
     absolute magnetization    =     4.66 Bohr mag/cell

     iteration # 67     ecut=    50.00 Ry     beta= 0.40
     Davidson diagonalization with overlap

---- Real-time Memory Report at c_bands before calling an iterative solver
           120 MiB given to the printing process from OS
            80 MiB allocation reported by mallinfo(arena+hblkhd)
        483503 MiB available memory on the node where the printing process lives
------------------
     ethr =  1.28E-08,  avg # of iterations = 13.1

     total cpu time spent up to now is      116.8 secs

[...]
     estimated scf accuracy    <       0.00008924 Ry

     total magnetization       =     5.88 Bohr mag/cell
     absolute magnetization    =     5.92 Bohr mag/cell

     iteration #479     ecut=    50.00 Ry     beta= 0.40
     Davidson diagonalization with overlap

---- Real-time Memory Report at c_bands before calling an iterative solver
           121 MiB given to the printing process from OS
            80 MiB allocation reported by mallinfo(arena+hblkhd)
        483520 MiB available memory on the node where the printing process lives
------------------
     ethr =  1.28E-08,  avg # of iterations =  3.7

     total cpu time spent up to now is      881.9 secs

     total energy              =    -485.92742057 Ry
     estimated scf accuracy    <       0.00011244 Ry

     total magnetization       =     5.95 Bohr mag/cell
     absolute magnetization    =     5.99 Bohr mag/cell

     iteration #480     ecut=    50.00 Ry     beta= 0.40
     Davidson diagonalization with overlap

---- Real-time Memory Report at c_bands before calling an iterative solver
           121 MiB given to the printing process from OS
            80 MiB allocation reported by mallinfo(arena+hblkhd)
        483520 MiB available memory on the node where the printing process lives
------------------
     ethr =  1.28E-08,  avg # of iterations =  1.4

     total cpu time spent up to now is      882.9 secs

     total energy              =    -485.92740457 Ry
     estimated scf accuracy    <       0.00011678 Ry

     total magnetization       =     5.97 Bohr mag/cell
     absolute magnetization    =     6.00 Bohr mag/cell

     iteration #481     ecut=    50.00 Ry     beta= 0.40
     Davidson diagonalization with overlap

---- Real-time Memory Report at c_bands before calling an iterative solver
           121 MiB given to the printing process from OS
            80 MiB allocation reported by mallinfo(arena+hblkhd)
        483520 MiB available memory on the node where the printing process lives
------------------
     ethr =  1.28E-08,  avg # of iterations =  1.4

     total cpu time spent up to now is      884.0 secs

     total energy              =    -485.92742021 Ry
     estimated scf accuracy    <       0.00012521 Ry

     total magnetization       =     5.99 Bohr mag/cell
     absolute magnetization    =     6.02 Bohr mag/cell

     iteration #482     ecut=    50.00 Ry     beta= 0.40
     Davidson diagonalization with overlap

---- Real-time Memory Report at c_bands before calling an iterative solver
           122 MiB given to the printing process from OS
            80 MiB allocation reported by mallinfo(arena+hblkhd)
        483520 MiB available memory on the node where the printing process lives
------------------
     ethr =  1.28E-08,  avg # of iterations =  1.0

     total cpu time spent up to now is      885.0 secs

     total energy              =    -485.92740493 Ry
     estimated scf accuracy    <       0.00011796 Ry

     total magnetization       =     5.97 Bohr mag/cell
     absolute magnetization    =     6.01 Bohr mag/cell

     iteration #483     ecut=    50.00 Ry     beta= 0.40
     Davidson diagonalization with overlap

---- Real-time Memory Report at c_bands before calling an iterative solver
           122 MiB given to the printing process from OS
            80 MiB allocation reported by mallinfo(arena+hblkhd)
        483519 MiB available memory on the node where the printing process lives
------------------
     ethr =  1.28E-08,  avg # of iterations =  1.1

     total cpu time spent up to now is      886.0 secs

     total energy              =    -485.92309500 Ry
     estimated scf accuracy    <       0.00012527 Ry

     total magnetization       =     5.99 Bohr mag/cell
     absolute magnetization    =     6.02 Bohr mag/cell

     iteration #484     ecut=    50.00 Ry     beta= 0.40
     Davidson diagonalization with overlap

---- Real-time Memory Report at c_bands before calling an iterative solver
           122 MiB given to the printing process from OS
            80 MiB allocation reported by mallinfo(arena+hblkhd)
        483521 MiB available memory on the node where the printing process lives
------------------
     ethr =  1.28E-08,  avg # of iterations =  9.4

     total cpu time spent up to now is      888.7 secs

     total energy              =    -485.92222580 Ry
     estimated scf accuracy    <       0.00039581 Ry

     total magnetization       =     5.17 Bohr mag/cell
     absolute magnetization    =     5.20 Bohr mag/cell

     iteration #485     ecut=    50.00 Ry     beta= 0.40
     Davidson diagonalization with overlap

---- Real-time Memory Report at c_bands before calling an iterative solver
           122 MiB given to the printing process from OS
            80 MiB allocation reported by mallinfo(arena+hblkhd)
        483521 MiB available memory on the node where the printing process lives
------------------
     ethr =  1.28E-08,  avg # of iterations = 10.0

     total cpu time spent up to now is      891.4 secs

     total energy              =    -485.92742583 Ry
     estimated scf accuracy    <       0.00009495 Ry

     total magnetization       =     5.95 Bohr mag/cell
     absolute magnetization    =     5.99 Bohr mag/cell

     iteration #486     ecut=    50.00 Ry     beta= 0.40
     Davidson diagonalization with overlap

---- Real-time Memory Report at c_bands before calling an iterative solver
           122 MiB given to the printing process from OS
            80 MiB allocation reported by mallinfo(arena+hblkhd)
        483520 MiB available memory on the node where the printing process lives
------------------
     ethr =  1.28E-08,  avg # of iterations =  1.4

     total cpu time spent up to now is      892.5 secs

     total energy              =    -485.92721815 Ry
     estimated scf accuracy    <       0.00009731 Ry

     total magnetization       =     5.96 Bohr mag/cell
     absolute magnetization    =     6.00 Bohr mag/cell

     iteration #487     ecut=    50.00 Ry     beta= 0.40
     Davidson diagonalization with overlap

---- Real-time Memory Report at c_bands before calling an iterative solver
           122 MiB given to the printing process from OS
            80 MiB allocation reported by mallinfo(arena+hblkhd)
        483520 MiB available memory on the node where the printing process lives
------------------
     ethr =  1.28E-08,  avg # of iterations =  5.7

     total cpu time spent up to now is      894.2 secs

     total energy              =    -485.92662397 Ry
     estimated scf accuracy    <       0.00005623 Ry

     total magnetization       =     5.74 Bohr mag/cell
     absolute magnetization    =     5.78 Bohr mag/cell

     iteration #488     ecut=    50.00 Ry     beta= 0.40
     Davidson diagonalization with overlap

---- Real-time Memory Report at c_bands before calling an iterative solver
           122 MiB given to the printing process from OS
            80 MiB allocation reported by mallinfo(arena+hblkhd)
        483520 MiB available memory on the node where the printing process lives
------------------
     ethr =  1.28E-08,  avg # of iterations =  6.2

     total cpu time spent up to now is      896.1 secs

     total energy              =    -485.92727920 Ry
     estimated scf accuracy    <       0.00012813 Ry

     total magnetization       =     6.04 Bohr mag/cell
     absolute magnetization    =     6.08 Bohr mag/cell

     iteration #489     ecut=    50.00 Ry     beta= 0.40
     Davidson diagonalization with overlap

---- Real-time Memory Report at c_bands before calling an iterative solver
           122 MiB given to the printing process from OS
            80 MiB allocation reported by mallinfo(arena+hblkhd)
        483520 MiB available memory on the node where the printing process lives
------------------
     ethr =  1.28E-08,  avg # of iterations =  2.4

     total cpu time spent up to now is      897.3 secs

     total energy              =    -485.92622453 Ry
     estimated scf accuracy    <       0.00016149 Ry

     total magnetization       =     6.09 Bohr mag/cell
     absolute magnetization    =     6.13 Bohr mag/cell

     iteration #490     ecut=    50.00 Ry     beta= 0.40
     Davidson diagonalization with overlap

---- Real-time Memory Report at c_bands before calling an iterative solver
           122 MiB given to the printing process from OS
            80 MiB allocation reported by mallinfo(arena+hblkhd)
        483520 MiB available memory on the node where the printing process lives
------------------
     ethr =  1.28E-08,  avg # of iterations =  6.8

     total cpu time spent up to now is      899.4 secs

     total energy              =    -485.91606129 Ry
     estimated scf accuracy    <       0.00036941 Ry

     total magnetization       =     6.37 Bohr mag/cell
     absolute magnetization    =     6.41 Bohr mag/cell

     iteration #491     ecut=    50.00 Ry     beta= 0.40
     Davidson diagonalization with overlap

---- Real-time Memory Report at c_bands before calling an iterative solver
           122 MiB given to the printing process from OS
            80 MiB allocation reported by mallinfo(arena+hblkhd)
        483519 MiB available memory on the node where the printing process lives
------------------
     ethr =  1.28E-08,  avg # of iterations = 11.8

     total cpu time spent up to now is      902.8 secs

     total energy              =    -485.92320747 Ry
     estimated scf accuracy    <       0.00054697 Ry

     total magnetization       =     5.09 Bohr mag/cell
     absolute magnetization    =     5.12 Bohr mag/cell

     iteration #492     ecut=    50.00 Ry     beta= 0.40
     Davidson diagonalization with overlap

---- Real-time Memory Report at c_bands before calling an iterative solver
           122 MiB given to the printing process from OS
            80 MiB allocation reported by mallinfo(arena+hblkhd)
        483518 MiB available memory on the node where the printing process lives
------------------
     ethr =  1.28E-08,  avg # of iterations =  9.3

     total cpu time spent up to now is      905.4 secs

     total energy              =    -485.92604235 Ry
     estimated scf accuracy    <       0.00008494 Ry

     total magnetization       =     5.80 Bohr mag/cell
     absolute magnetization    =     5.84 Bohr mag/cell

     iteration #493     ecut=    50.00 Ry     beta= 0.40
     Davidson diagonalization with overlap

---- Real-time Memory Report at c_bands before calling an iterative solver
           122 MiB given to the printing process from OS
            80 MiB allocation reported by mallinfo(arena+hblkhd)
        483518 MiB available memory on the node where the printing process lives
------------------
     ethr =  1.28E-08,  avg # of iterations =  7.8

     total cpu time spent up to now is      907.7 secs

     total energy              =    -485.92534722 Ry
     estimated scf accuracy    <       0.00026128 Ry

     total magnetization       =     6.18 Bohr mag/cell
     absolute magnetization    =     6.22 Bohr mag/cell

     iteration #494     ecut=    50.00 Ry     beta= 0.40
     Davidson diagonalization with overlap

---- Real-time Memory Report at c_bands before calling an iterative solver
           122 MiB given to the printing process from OS
            80 MiB allocation reported by mallinfo(arena+hblkhd)
        483518 MiB available memory on the node where the printing process lives
------------------
     ethr =  1.28E-08,  avg # of iterations =  8.6

     total cpu time spent up to now is      910.1 secs

     total energy              =    -485.92505147 Ry
     estimated scf accuracy    <       0.00005842 Ry

     total magnetization       =     5.62 Bohr mag/cell
     absolute magnetization    =     5.65 Bohr mag/cell

     iteration #495     ecut=    50.00 Ry     beta= 0.40
     Davidson diagonalization with overlap

---- Real-time Memory Report at c_bands before calling an iterative solver
           122 MiB given to the printing process from OS
            80 MiB allocation reported by mallinfo(arena+hblkhd)
        483518 MiB available memory on the node where the printing process lives
------------------
     ethr =  1.28E-08,  avg # of iterations =  8.6

     total cpu time spent up to now is      912.5 secs

     total energy              =    -485.92706389 Ry
     estimated scf accuracy    <       0.00021226 Ry

     total magnetization       =     6.14 Bohr mag/cell
     absolute magnetization    =     6.18 Bohr mag/cell

     iteration #496     ecut=    50.00 Ry     beta= 0.40
     Davidson diagonalization with overlap

---- Real-time Memory Report at c_bands before calling an iterative solver
           122 MiB given to the printing process from OS
            80 MiB allocation reported by mallinfo(arena+hblkhd)
        483517 MiB available memory on the node where the printing process lives
------------------
     ethr =  1.28E-08,  avg # of iterations =  5.9

     total cpu time spent up to now is      914.2 secs

     total energy              =    -485.92705657 Ry
     estimated scf accuracy    <       0.00009549 Ry

     total magnetization       =     5.91 Bohr mag/cell
     absolute magnetization    =     5.95 Bohr mag/cell

     iteration #497     ecut=    50.00 Ry     beta= 0.40
     Davidson diagonalization with overlap

---- Real-time Memory Report at c_bands before calling an iterative solver
           122 MiB given to the printing process from OS
            80 MiB allocation reported by mallinfo(arena+hblkhd)
        483517 MiB available memory on the node where the printing process lives
------------------
     ethr =  1.28E-08,  avg # of iterations =  5.4

     total cpu time spent up to now is      915.9 secs

     total energy              =    -485.92732532 Ry
     estimated scf accuracy    <       0.00016924 Ry

     total magnetization       =     6.09 Bohr mag/cell
     absolute magnetization    =     6.13 Bohr mag/cell

     iteration #498     ecut=    50.00 Ry     beta= 0.40
     Davidson diagonalization with overlap

---- Real-time Memory Report at c_bands before calling an iterative solver
           122 MiB given to the printing process from OS
            80 MiB allocation reported by mallinfo(arena+hblkhd)
        483517 MiB available memory on the node where the printing process lives
------------------
     ethr =  1.28E-08,  avg # of iterations =  1.4

     total cpu time spent up to now is      916.9 secs

     total energy              =    -485.92726727 Ry
     estimated scf accuracy    <       0.00015062 Ry

     total magnetization       =     6.06 Bohr mag/cell
     absolute magnetization    =     6.10 Bohr mag/cell

     iteration #499     ecut=    50.00 Ry     beta= 0.40
     Davidson diagonalization with overlap

---- Real-time Memory Report at c_bands before calling an iterative solver
           122 MiB given to the printing process from OS
            80 MiB allocation reported by mallinfo(arena+hblkhd)
        483517 MiB available memory on the node where the printing process lives
------------------
     ethr =  1.28E-08,  avg # of iterations =  1.9

     total cpu time spent up to now is      918.0 secs

     total energy              =    -485.92719261 Ry
     estimated scf accuracy    <       0.00018215 Ry

     total magnetization       =     6.11 Bohr mag/cell
     absolute magnetization    =     6.15 Bohr mag/cell

     iteration #500     ecut=    50.00 Ry     beta= 0.40
     Davidson diagonalization with overlap

---- Real-time Memory Report at c_bands before calling an iterative solver
           122 MiB given to the printing process from OS
            80 MiB allocation reported by mallinfo(arena+hblkhd)
        483516 MiB available memory on the node where the printing process lives
------------------
     ethr =  1.28E-08,  avg # of iterations =  4.2

     total cpu time spent up to now is      919.4 secs

     total energy              =    -485.92279821 Ry
     estimated scf accuracy    <       0.00021864 Ry

     total magnetization       =     6.16 Bohr mag/cell
     absolute magnetization    =     6.20 Bohr mag/cell

     End of self-consistent calculation

     convergence NOT achieved after 500 iterations: stopping

     Writing config to output data dir ./out/aiida.save/ :
     XML data file, charge density

     init_run     :      1.39s CPU      1.47s WALL (       1 calls)
     electrons    :    881.20s CPU    917.74s WALL (       1 calls)

     Called by init_run:
     wfcinit      :      0.28s CPU      0.30s WALL (       1 calls)
     wfcinit:atom :      0.01s CPU      0.01s WALL (       5 calls)
     wfcinit:wfcr :      0.25s CPU      0.27s WALL (       5 calls)
     potinit      :      0.47s CPU      0.50s WALL (       1 calls)
     hinit0       :      0.51s CPU      0.52s WALL (       1 calls)

     Called by electrons:
     c_bands      :    665.43s CPU    693.77s WALL (     500 calls)
     sum_band     :     90.03s CPU     95.68s WALL (     500 calls)
     v_of_rho     :     72.69s CPU     74.17s WALL (     501 calls)
     v_h          :      2.35s CPU      2.43s WALL (     501 calls)
     v_xc         :     70.33s CPU     71.73s WALL (     501 calls)
     newd         :     15.03s CPU     15.22s WALL (     501 calls)
     PAW_pot      :     15.08s CPU     15.09s WALL (     501 calls)
     mix_rho      :     10.09s CPU     10.37s WALL (     500 calls)

     Called by c_bands:
     init_us_2    :      9.75s CPU     10.00s WALL (    5005 calls)
     init_us_2:cp :      9.73s CPU      9.99s WALL (    5005 calls)
     cegterg      :    557.64s CPU    584.34s WALL (    2500 calls)

     Called by sum_band:
     sum_band:wei :      0.50s CPU      0.52s WALL (     500 calls)
     sum_band:loo :     60.40s CPU     63.55s WALL (     500 calls)
     sum_band:buf :      1.47s CPU      1.49s WALL (    2500 calls)
     sum_band:ini :      4.19s CPU      4.22s WALL (    2500 calls)
     sum_band:cal :      9.88s CPU      9.89s WALL (    2500 calls)
     sum_band:bec :      0.14s CPU      0.14s WALL (    2500 calls)
     addusdens    :     21.07s CPU     21.68s WALL (     500 calls)
                                        0.00s GPU  (     500 calls)
     addusd:skk   :      0.13s CPU      0.14s WALL (    1000 calls)
                                        0.00s GPU  (    1000 calls)

     Called by *egterg:
     cdiaghg      :     35.15s CPU     35.32s WALL (   16477 calls)
     cegterg:over :     31.71s CPU     31.96s WALL (   13977 calls)
     cegterg:upda :     17.87s CPU     17.92s WALL (   13977 calls)
     cegterg:last :     41.28s CPU     41.33s WALL (    9556 calls)
     h_psi        :    384.12s CPU    410.00s WALL (   16482 calls)
     s_psi        :     32.22s CPU     32.29s WALL (   16482 calls)
     g_psi        :      1.58s CPU      1.59s WALL (   13977 calls)

     Called by h_psi:
     h_psi:calbec :     46.80s CPU     47.07s WALL (   16482 calls)
     vloc_psi     :    302.20s CPU    327.14s WALL (   16482 calls)
     add_vuspsi   :     32.44s CPU     33.09s WALL (   16482 calls)

     General routines
     calbec       :     56.60s CPU     56.88s WALL (   18982 calls)
     fft          :     24.41s CPU     26.39s WALL (   12523 calls)
     ffts         :      1.33s CPU      1.47s WALL (    2002 calls)
     fftw         :    269.12s CPU    293.98s WALL (  951220 calls)
     interpolate  :      3.60s CPU      3.87s WALL (    1002 calls)
     davcio       :      0.00s CPU      0.02s WALL (      23 calls)

     Parallel routines

     PAW routines
     PAW_pot      :     15.08s CPU     15.09s WALL (     501 calls)
     PAW_symme    :      0.18s CPU      0.18s WALL (    1001 calls)

     PWSCF        :  14m42.99s CPU  15m19.77s WALL


   This run was terminated on:  22:28:32  28Nov2023            

=------------------------------------------------------------------------------=
   JOB DONE.
=------------------------------------------------------------------------------=
