
     Program PWSCF v.7.2 starts on 30Nov2023 at  4:55: 1 
        Git branch: develop
        Last git commit: 9055681be6fc8200e6fffe76ed5fda34c2696339
        Last git commit date: Wed Nov 8 16:29:39 2023 +0000
        Last git commit subject: Merge branch 'calbec_fix' into 'develop'

     This program is part of the open-source Quantum ESPRESSO suite
     for quantum simulation of materials; please cite
         "P. Giannozzi et al., J. Phys.:Condens. Matter 21 395502 (2009);
         "P. Giannozzi et al., J. Phys.:Condens. Matter 29 465901 (2017);
         "P. Giannozzi et al., J. Chem. Phys. 152 154105 (2020);
          URL http://www.quantum-espresso.org", 
     in publications or presentations arising from this work. More details at
     http://www.quantum-espresso.org/quote

     Parallel version (MPI), running on    56 processors

     MPI processes distributed on     1 nodes
     489393 MiB available memory on the printing compute node when the environment starts

     Reading input from aiida.in

     Current dimensions of program PWSCF are:
     Max number of different atomic species (ntypx) = 10
     Max number of k-points (npk) =  40000
     Max angular momentum in pseudopotentials (lmaxx) =  4
     file In.pbesol-dn-rrkjus_psl.0.2.2.UPF: wavefunction(s)  5S renormalized
     Message from routine setup:
     using ibrav=0 with symmetry is DISCOURAGED, use correct ibrav instead

     K-points division:     npool     =       7
     R & G space division:  proc/nbgrp/npool/nimage =       8
     Subspace diagonalization in iterative solution of the eigenvalue problem:
     a serial algorithm will be used


     Parallelization info
     --------------------
     sticks:   dense  smooth     PW     G-vecs:    dense   smooth      PW
     Min         256     128     37                 7546     2666     433
     Max         258     129     38                 7547     2667     436
     Sum        2053    1027    301                60375    21331    3479

     Using Slab Decomposition



     bravais-lattice index     =            0
     lattice parameter (alat)  =       8.5786  a.u.
     unit-cell volume          =     446.4180 (a.u.)^3
     number of atoms/cell      =            4
     number of atomic types    =            4
     number of electrons       =        52.00
     number of Kohn-Sham states=           35
     kinetic-energy cutoff     =      50.0000  Ry
     charge density cutoff     =     400.0000  Ry
     scf convergence threshold =      8.0E-10
     mixing beta               =       0.1000
     number of iterations used =           16  plain     mixing
     Exchange-correlation= SLA  PW   PSX  PSC
                           (   1   4  10   8   0   0   0)

     celldm(1)=   8.578649  celldm(2)=   0.000000  celldm(3)=   0.000000
     celldm(4)=   0.000000  celldm(5)=   0.000000  celldm(6)=   0.000000

     crystal axes: (cart. coord. in units of alat)
               a(1) = (   0.000000   0.707107   0.707107 )  
               a(2) = (   0.707107   0.000000   0.707107 )  
               a(3) = (   0.707107   0.707107   0.000000 )  

     reciprocal axes: (cart. coord. in units 2 pi/alat)
               b(1) = ( -0.707107  0.707107  0.707107 )  
               b(2) = (  0.707107 -0.707107  0.707107 )  
               b(3) = (  0.707107  0.707107 -0.707107 )  


     PseudoPot. # 1 for Cr read from file:
     ./pseudo/cr_pbesol_v1.5.uspp.F.UPF
     MD5 check sum: a621641e0be27168676a837af8893d0f
     Pseudo is Ultrasoft + core correction, Zval = 14.0
     Generated by new atomic code, or converted to UPF format
     Using radial grid of  857 points,  6 beta functions with: 
                l(1) =   0
                l(2) =   0
                l(3) =   1
                l(4) =   1
                l(5) =   2
                l(6) =   2
     Q(r) pseudized with  8 coefficients,  rinner =    0.950   0.950   0.950
                                                       0.950   0.950

     PseudoPot. # 2 for In read from file:
     ./pseudo/In.pbesol-dn-rrkjus_psl.0.2.2.UPF
     MD5 check sum: 2a3399a31491503da6b8c7d8e01e9843
     Pseudo is Ultrasoft + core correction, Zval = 13.0
     Generated using "atomic" code by A. Dal Corso  v.6.0 svn rev. 13079
     Using radial grid of 1241 points,  6 beta functions with: 
                l(1) =   0
                l(2) =   0
                l(3) =   1
                l(4) =   1
                l(5) =   2
                l(6) =   2
     Q(r) pseudized with 0 coefficients 


     PseudoPot. # 3 for V  read from file:
     ./pseudo/v_pbesol_v1.4.uspp.F.UPF
     MD5 check sum: 72fa7d0034c41d8adc50bbc8c632b9f9
     Pseudo is Ultrasoft + core correction, Zval = 13.0
     Generated by new atomic code, or converted to UPF format
     Using radial grid of  853 points,  6 beta functions with: 
                l(1) =   0
                l(2) =   0
                l(3) =   1
                l(4) =   1
                l(5) =   2
                l(6) =   2
     Q(r) pseudized with  8 coefficients,  rinner =    1.100   1.100   1.100
                                                       1.100   1.100

     PseudoPot. # 4 for Zr read from file:
     ./pseudo/zr_pbesol_v1.uspp.F.UPF
     MD5 check sum: f29f2a20533738a515abe666fee35838
     Pseudo is Ultrasoft + core correction, Zval = 12.0
     Generated by new atomic code, or converted to UPF format
     Using radial grid of  887 points,  6 beta functions with: 
                l(1) =   0
                l(2) =   0
                l(3) =   1
                l(4) =   1
                l(5) =   2
                l(6) =   2
     Q(r) pseudized with  6 coefficients,  rinner =    1.200   1.200   1.200
                                                       1.200   1.200

     atomic species   valence    mass     pseudopotential
     Cr               14.00    51.99610     Cr( 1.00)
     In               13.00   114.81800     In( 1.00)
     V                13.00    50.94150     V ( 1.00)
     Zr               12.00    91.22400     Zr( 1.00)

     Starting magnetic structure 
     atomic species   magnetization
     Cr              0.357
     In              0.100
     V               0.385
     Zr              0.417

     24 Sym. Ops. (no inversion) found


                                    s                        frac. trans.

      isym =  1     identity                                     

 cryst.   s( 1) = (     1          0          0      )
                  (     0          1          0      )
                  (     0          0          1      )

 cart.    s( 1) = (  1.0000000 -0.0000000  0.0000000 )
                  ( -0.0000000  1.0000000  0.0000000 )
                  ( -0.0000000  0.0000000  1.0000000 )


      isym =  2     180 deg rotation - cart. axis [0,0,1]        

 cryst.   s( 2) = (     0          1         -1      )
                  (     1          0         -1      )
                  (     0          0         -1      )

 cart.    s( 2) = ( -1.0000000  0.0000000  0.0000000 )
                  (  0.0000000 -1.0000000  0.0000000 )
                  (  0.0000000 -0.0000000  1.0000000 )


      isym =  3     180 deg rotation - cart. axis [0,1,0]        

 cryst.   s( 3) = (     0         -1          1      )
                  (     0         -1          0      )
                  (     1         -1          0      )

 cart.    s( 3) = ( -1.0000000 -0.0000000 -0.0000000 )
                  (  0.0000000  1.0000000 -0.0000000 )
                  (  0.0000000  0.0000000 -1.0000000 )


      isym =  4     180 deg rotation - cart. axis [1,0,0]        

 cryst.   s( 4) = (    -1          0          0      )
                  (    -1          0          1      )
                  (    -1          1          0      )

 cart.    s( 4) = (  1.0000000  0.0000000 -0.0000000 )
                  ( -0.0000000 -1.0000000 -0.0000000 )
                  ( -0.0000000 -0.0000000 -1.0000000 )


      isym =  5     120 deg rotation - cart. axis [-1,-1,-1]     

 cryst.   s( 5) = (     0          0          1      )
                  (     1          0          0      )
                  (     0          1          0      )

 cart.    s( 5) = (  0.0000000  1.0000000 -0.0000000 )
                  (  0.0000000 -0.0000000  1.0000000 )
                  (  1.0000000 -0.0000000  0.0000000 )


      isym =  6     120 deg rotation - cart. axis [-1,1,1]       

 cryst.   s( 6) = (     1         -1          0      )
                  (     0         -1          1      )
                  (     0         -1          0      )

 cart.    s( 6) = ( -0.0000000 -1.0000000 -0.0000000 )
                  ( -0.0000000  0.0000000  1.0000000 )
                  ( -1.0000000  0.0000000  0.0000000 )


      isym =  7     120 deg rotation - cart. axis [1,1,-1]       

 cryst.   s( 7) = (    -1          1          0      )
                  (    -1          0          0      )
                  (    -1          0          1      )

 cart.    s( 7) = ( -0.0000000  1.0000000  0.0000000 )
                  ( -0.0000000 -0.0000000 -1.0000000 )
                  ( -1.0000000 -0.0000000 -0.0000000 )


      isym =  8     120 deg rotation - cart. axis [1,-1,1]       

 cryst.   s( 8) = (     0          0         -1      )
                  (     0          1         -1      )
                  (     1          0         -1      )

 cart.    s( 8) = (  0.0000000 -1.0000000  0.0000000 )
                  (  0.0000000  0.0000000 -1.0000000 )
                  (  1.0000000  0.0000000 -0.0000000 )


      isym =  9     120 deg rotation - cart. axis [1,1,1]        

 cryst.   s( 9) = (     0          1          0      )
                  (     0          0          1      )
                  (     1          0          0      )

 cart.    s( 9) = ( -0.0000000  0.0000000  1.0000000 )
                  (  1.0000000  0.0000000 -0.0000000 )
                  (  0.0000000  1.0000000 -0.0000000 )


      isym = 10     120 deg rotation - cart. axis [-1,1,-1]      

 cryst.   s(10) = (    -1          0          1      )
                  (    -1          1          0      )
                  (    -1          0          0      )

 cart.    s(10) = (  0.0000000 -0.0000000  1.0000000 )
                  ( -1.0000000 -0.0000000 -0.0000000 )
                  ( -0.0000000 -1.0000000 -0.0000000 )


      isym = 11     120 deg rotation - cart. axis [1,-1,-1]      

 cryst.   s(11) = (     1          0         -1      )
                  (     0          0         -1      )
                  (     0          1         -1      )

 cart.    s(11) = (  0.0000000  0.0000000 -1.0000000 )
                  ( -1.0000000  0.0000000  0.0000000 )
                  ( -0.0000000  1.0000000  0.0000000 )


      isym = 12     120 deg rotation - cart. axis [-1,-1,1]      

 cryst.   s(12) = (     0         -1          0      )
                  (     1         -1          0      )
                  (     0         -1          1      )

 cart.    s(12) = ( -0.0000000 -0.0000000 -1.0000000 )
                  (  1.0000000 -0.0000000  0.0000000 )
                  (  0.0000000 -1.0000000  0.0000000 )


      isym = 13     inv. 180 deg rotation - cart. axis [1,1,0]   

 cryst.   s(13) = (     1          0         -1      )
                  (     0          1         -1      )
                  (     0          0         -1      )

 cart.    s(13) = (  0.0000000 -1.0000000  0.0000000 )
                  ( -1.0000000  0.0000000  0.0000000 )
                  ( -0.0000000  0.0000000  1.0000000 )


      isym = 14     inv. 180 deg rotation - cart. axis [1,-1,0]  

 cryst.   s(14) = (     0          1          0      )
                  (     1          0          0      )
                  (     0          0          1      )

 cart.    s(14) = ( -0.0000000  1.0000000  0.0000000 )
                  (  1.0000000 -0.0000000  0.0000000 )
                  (  0.0000000 -0.0000000  1.0000000 )


      isym = 15     inv.  90 deg rotation - cart. axis [0,0,-1]  

 cryst.   s(15) = (     0         -1          0      )
                  (     0         -1          1      )
                  (     1         -1          0      )

 cart.    s(15) = ( -0.0000000 -1.0000000 -0.0000000 )
                  (  1.0000000  0.0000000 -0.0000000 )
                  (  0.0000000  0.0000000 -1.0000000 )


      isym = 16     inv.  90 deg rotation - cart. axis [0,0,1]   

 cryst.   s(16) = (    -1          0          1      )
                  (    -1          0          0      )
                  (    -1          1          0      )

 cart.    s(16) = (  0.0000000  1.0000000 -0.0000000 )
                  ( -1.0000000 -0.0000000 -0.0000000 )
                  ( -0.0000000 -0.0000000 -1.0000000 )


      isym = 17     inv. 180 deg rotation - cart. axis [1,0,1]   

 cryst.   s(17) = (     1         -1          0      )
                  (     0         -1          0      )
                  (     0         -1          1      )

 cart.    s(17) = ( -0.0000000 -0.0000000 -1.0000000 )
                  ( -0.0000000  1.0000000  0.0000000 )
                  ( -1.0000000  0.0000000  0.0000000 )


      isym = 18     inv. 180 deg rotation - cart. axis [-1,0,1]  

 cryst.   s(18) = (     0          0          1      )
                  (     0          1          0      )
                  (     1          0          0      )

 cart.    s(18) = (  0.0000000 -0.0000000  1.0000000 )
                  (  0.0000000  1.0000000 -0.0000000 )
                  (  1.0000000  0.0000000 -0.0000000 )


      isym = 19     inv.  90 deg rotation - cart. axis [0,1,0]   

 cryst.   s(19) = (     0          0         -1      )
                  (     1          0         -1      )
                  (     0          1         -1      )

 cart.    s(19) = (  0.0000000  0.0000000 -1.0000000 )
                  (  0.0000000 -1.0000000  0.0000000 )
                  (  1.0000000 -0.0000000  0.0000000 )


      isym = 20     inv.  90 deg rotation - cart. axis [0,-1,0]  

 cryst.   s(20) = (    -1          1          0      )
                  (    -1          0          1      )
                  (    -1          0          0      )

 cart.    s(20) = ( -0.0000000  0.0000000  1.0000000 )
                  ( -0.0000000 -1.0000000 -0.0000000 )
                  ( -1.0000000 -0.0000000 -0.0000000 )


      isym = 21     inv. 180 deg rotation - cart. axis [0,1,1]   

 cryst.   s(21) = (    -1          0          0      )
                  (    -1          1          0      )
                  (    -1          0          1      )

 cart.    s(21) = (  1.0000000 -0.0000000  0.0000000 )
                  ( -0.0000000 -0.0000000 -1.0000000 )
                  ( -0.0000000 -1.0000000 -0.0000000 )


      isym = 22     inv. 180 deg rotation - cart. axis [0,1,-1]  

 cryst.   s(22) = (     1          0          0      )
                  (     0          0          1      )
                  (     0          1          0      )

 cart.    s(22) = (  1.0000000  0.0000000 -0.0000000 )
                  ( -0.0000000  0.0000000  1.0000000 )
                  ( -0.0000000  1.0000000  0.0000000 )


      isym = 23     inv.  90 deg rotation - cart. axis [-1,0,0]  

 cryst.   s(23) = (     0          1         -1      )
                  (     0          0         -1      )
                  (     1          0         -1      )

 cart.    s(23) = ( -1.0000000  0.0000000  0.0000000 )
                  (  0.0000000  0.0000000 -1.0000000 )
                  (  0.0000000  1.0000000 -0.0000000 )


      isym = 24     inv.  90 deg rotation - cart. axis [1,0,0]   

 cryst.   s(24) = (     0         -1          1      )
                  (     1         -1          0      )
                  (     0         -1          0      )

 cart.    s(24) = ( -1.0000000 -0.0000000 -0.0000000 )
                  (  0.0000000 -0.0000000  1.0000000 )
                  (  0.0000000 -1.0000000  0.0000000 )


   Cartesian axes

     site n.     atom                  positions (alat units)
         1        Zr     tau(   1) = (   0.3535534   0.3535534   0.3535534  )
         2        V      tau(   2) = (   0.7071068   0.0000000   0.0000000  )
         3        Cr     tau(   3) = (   0.0000000   0.0000000   0.0000000  )
         4        In     tau(   4) = (   0.3535534   0.3535534   1.0606602  )

   Crystallographic axes

     site n.     atom                  positions (cryst. coord.)
         1        Zr     tau(   1) = (  0.2500000  0.2500000  0.2500000  )
         2        V      tau(   2) = ( -0.5000000  0.5000000  0.5000000  )
         3        Cr     tau(   3) = (  0.0000000  0.0000000  0.0000000  )
         4        In     tau(   4) = (  0.7500000  0.7500000 -0.2500000  )

     number of k points=    72  Marzari-Vanderbilt smearing, width (Ry)=  0.0200
                       cart. coord. in units 2pi/alat
        k(    1) = (   0.0000000   0.0000000   0.0000000), wk =   0.0005787
        k(    2) = (   0.0589256   0.0589256  -0.0589256), wk =   0.0046296
        k(    3) = (   0.1178511   0.1178511  -0.1178511), wk =   0.0046296
        k(    4) = (   0.1767767   0.1767767  -0.1767767), wk =   0.0046296
        k(    5) = (   0.2357023   0.2357023  -0.2357023), wk =   0.0046296
        k(    6) = (   0.2946278   0.2946278  -0.2946278), wk =   0.0046296
        k(    7) = (  -0.3535534  -0.3535534   0.3535534), wk =   0.0023148
        k(    8) = (   0.1178511   0.0000000  -0.0000000), wk =   0.0034722
        k(    9) = (   0.1767767   0.0589256  -0.0589256), wk =   0.0138889
        k(   10) = (   0.2357023   0.1178511  -0.1178511), wk =   0.0138889
        k(   11) = (   0.2946278   0.1767767  -0.1767767), wk =   0.0138889
        k(   12) = (   0.3535534   0.2357023  -0.2357023), wk =   0.0138889
        k(   13) = (  -0.2946278  -0.4124790   0.4124790), wk =   0.0138889
        k(   14) = (  -0.2357023  -0.3535534   0.3535534), wk =   0.0138889
        k(   15) = (  -0.1767767  -0.2946278   0.2946278), wk =   0.0138889
        k(   16) = (  -0.1178511  -0.2357023   0.2357023), wk =   0.0138889
        k(   17) = (  -0.0589256  -0.1767767   0.1767767), wk =   0.0138889
        k(   18) = (  -0.0000000  -0.1178511   0.1178511), wk =   0.0069444
        k(   19) = (   0.2357023   0.0000000  -0.0000000), wk =   0.0034722
        k(   20) = (   0.2946278   0.0589256  -0.0589256), wk =   0.0138889
        k(   21) = (   0.3535534   0.1178511  -0.1178511), wk =   0.0138889
        k(   22) = (   0.4124790   0.1767767  -0.1767767), wk =   0.0138889
        k(   23) = (  -0.2357023  -0.4714045   0.4714045), wk =   0.0138889
        k(   24) = (  -0.1767767  -0.4124790   0.4124790), wk =   0.0138889
        k(   25) = (  -0.1178511  -0.3535534   0.3535534), wk =   0.0138889
        k(   26) = (  -0.0589256  -0.2946278   0.2946278), wk =   0.0138889
        k(   27) = (   0.0000000  -0.2357023   0.2357023), wk =   0.0069444
        k(   28) = (   0.3535534   0.0000000   0.0000000), wk =   0.0034722
        k(   29) = (   0.4124790   0.0589256  -0.0589256), wk =   0.0138889
        k(   30) = (   0.4714045   0.1178511  -0.1178511), wk =   0.0138889
        k(   31) = (  -0.1767767  -0.5303301   0.5303301), wk =   0.0138889
        k(   32) = (  -0.1178511  -0.4714045   0.4714045), wk =   0.0138889
        k(   33) = (  -0.0589256  -0.4124790   0.4124790), wk =   0.0138889
        k(   34) = (   0.0000000  -0.3535534   0.3535534), wk =   0.0069444
        k(   35) = (   0.4714045   0.0000000  -0.0000000), wk =   0.0034722
        k(   36) = (   0.5303301   0.0589256  -0.0589256), wk =   0.0138889
        k(   37) = (  -0.1178511  -0.5892557   0.5892557), wk =   0.0138889
        k(   38) = (  -0.0589256  -0.5303301   0.5303301), wk =   0.0138889
        k(   39) = (  -0.0000000  -0.4714045   0.4714045), wk =   0.0069444
        k(   40) = (   0.5892557   0.0000000  -0.0000000), wk =   0.0034722
        k(   41) = (  -0.0589256  -0.6481812   0.6481812), wk =   0.0138889
        k(   42) = (   0.0000000  -0.5892557   0.5892557), wk =   0.0069444
        k(   43) = (  -0.7071068   0.0000000   0.0000000), wk =   0.0017361
        k(   44) = (   0.2357023   0.1178511   0.0000000), wk =   0.0138889
        k(   45) = (   0.2946278   0.1767767  -0.0589256), wk =   0.0277778
        k(   46) = (   0.3535534   0.2357023  -0.1178511), wk =   0.0277778
        k(   47) = (  -0.2946278  -0.4124790   0.5303301), wk =   0.0277778
        k(   48) = (  -0.2357023  -0.3535534   0.4714045), wk =   0.0138889
        k(   49) = (   0.3535534   0.1178511   0.0000000), wk =   0.0138889
        k(   50) = (   0.4124790   0.1767767  -0.0589256), wk =   0.0277778
        k(   51) = (  -0.2357023  -0.4714045   0.5892557), wk =   0.0277778
        k(   52) = (  -0.1767767  -0.4124790   0.5303301), wk =   0.0277778
        k(   53) = (  -0.1178511  -0.3535534   0.4714045), wk =   0.0277778
        k(   54) = (  -0.0589256  -0.2946278   0.4124790), wk =   0.0277778
        k(   55) = (   0.0000000  -0.2357023   0.3535534), wk =   0.0138889
        k(   56) = (   0.4714045   0.1178511  -0.0000000), wk =   0.0138889
        k(   57) = (  -0.1767767  -0.5303301   0.6481812), wk =   0.0277778
        k(   58) = (  -0.1178511  -0.4714045   0.5892557), wk =   0.0277778
        k(   59) = (  -0.0589256  -0.4124790   0.5303301), wk =   0.0277778
        k(   60) = (  -0.0000000  -0.3535534   0.4714045), wk =   0.0138889
        k(   61) = (  -0.1178511  -0.5892557   0.7071068), wk =   0.0138889
        k(   62) = (  -0.0589256  -0.5303301   0.6481812), wk =   0.0277778
        k(   63) = (  -0.0000000  -0.4714045   0.5892557), wk =   0.0138889
        k(   64) = (  -0.7071068   0.1178511  -0.0000000), wk =   0.0069444
        k(   65) = (  -0.2357023  -0.4714045   0.7071068), wk =   0.0138889
        k(   66) = (  -0.1767767  -0.4124790   0.6481812), wk =   0.0277778
        k(   67) = (  -0.1178511  -0.3535534   0.5892557), wk =   0.0138889
        k(   68) = (  -0.1178511  -0.4714045   0.7071068), wk =   0.0138889
        k(   69) = (  -0.0589256  -0.4124790   0.6481812), wk =   0.0277778
        k(   70) = (   0.0000000  -0.3535534   0.5892557), wk =   0.0138889
        k(   71) = (  -0.7071068   0.2357023   0.0000000), wk =   0.0069444
        k(   72) = (  -0.7071068   0.3535534   0.0000000), wk =   0.0034722

                       cryst. coord.
        k(    1) = (   0.0000000   0.0000000   0.0000000), wk =   0.0005787
        k(    2) = (   0.0000000   0.0000000   0.0833333), wk =   0.0046296
        k(    3) = (   0.0000000   0.0000000   0.1666667), wk =   0.0046296
        k(    4) = (   0.0000000   0.0000000   0.2500000), wk =   0.0046296
        k(    5) = (   0.0000000   0.0000000   0.3333333), wk =   0.0046296
        k(    6) = (  -0.0000000  -0.0000000   0.4166667), wk =   0.0046296
        k(    7) = (  -0.0000000  -0.0000000  -0.5000000), wk =   0.0023148
        k(    8) = (  -0.0000000   0.0833333   0.0833333), wk =   0.0034722
        k(    9) = (   0.0000000   0.0833333   0.1666667), wk =   0.0138889
        k(   10) = (  -0.0000000   0.0833333   0.2500000), wk =   0.0138889
        k(   11) = (   0.0000000   0.0833333   0.3333333), wk =   0.0138889
        k(   12) = (  -0.0000000   0.0833333   0.4166667), wk =   0.0138889
        k(   13) = (  -0.0000000   0.0833333  -0.5000000), wk =   0.0138889
        k(   14) = (  -0.0000000   0.0833333  -0.4166667), wk =   0.0138889
        k(   15) = (  -0.0000000   0.0833333  -0.3333333), wk =   0.0138889
        k(   16) = (  -0.0000000   0.0833333  -0.2500000), wk =   0.0138889
        k(   17) = (  -0.0000000   0.0833333  -0.1666667), wk =   0.0138889
        k(   18) = (   0.0000000   0.0833333  -0.0833333), wk =   0.0069444
        k(   19) = (  -0.0000000   0.1666667   0.1666667), wk =   0.0034722
        k(   20) = (  -0.0000000   0.1666667   0.2500000), wk =   0.0138889
        k(   21) = (   0.0000000   0.1666667   0.3333333), wk =   0.0138889
        k(   22) = (  -0.0000000   0.1666667   0.4166667), wk =   0.0138889
        k(   23) = (  -0.0000000   0.1666667  -0.5000000), wk =   0.0138889
        k(   24) = (  -0.0000000   0.1666667  -0.4166667), wk =   0.0138889
        k(   25) = (  -0.0000000   0.1666667  -0.3333333), wk =   0.0138889
        k(   26) = (   0.0000000   0.1666667  -0.2500000), wk =   0.0138889
        k(   27) = (  -0.0000000   0.1666667  -0.1666667), wk =   0.0069444
        k(   28) = (   0.0000000   0.2500000   0.2500000), wk =   0.0034722
        k(   29) = (   0.0000000   0.2500000   0.3333333), wk =   0.0138889
        k(   30) = (  -0.0000000   0.2500000   0.4166667), wk =   0.0138889
        k(   31) = (   0.0000000   0.2500000  -0.5000000), wk =   0.0138889
        k(   32) = (  -0.0000000   0.2500000  -0.4166667), wk =   0.0138889
        k(   33) = (  -0.0000000   0.2500000  -0.3333333), wk =   0.0138889
        k(   34) = (  -0.0000000   0.2500000  -0.2500000), wk =   0.0069444
        k(   35) = (  -0.0000000   0.3333333   0.3333333), wk =   0.0034722
        k(   36) = (  -0.0000000   0.3333333   0.4166667), wk =   0.0138889
        k(   37) = (   0.0000000   0.3333333  -0.5000000), wk =   0.0138889
        k(   38) = (  -0.0000000   0.3333333  -0.4166667), wk =   0.0138889
        k(   39) = (   0.0000000   0.3333333  -0.3333333), wk =   0.0069444
        k(   40) = (   0.0000000   0.4166667   0.4166667), wk =   0.0034722
        k(   41) = (  -0.0000000   0.4166667  -0.5000000), wk =   0.0138889
        k(   42) = (   0.0000000   0.4166667  -0.4166667), wk =   0.0069444
        k(   43) = (   0.0000000  -0.5000000  -0.5000000), wk =   0.0017361
        k(   44) = (   0.0833333   0.1666667   0.2500000), wk =   0.0138889
        k(   45) = (   0.0833333   0.1666667   0.3333333), wk =   0.0277778
        k(   46) = (   0.0833333   0.1666667   0.4166667), wk =   0.0277778
        k(   47) = (   0.0833333   0.1666667  -0.5000000), wk =   0.0277778
        k(   48) = (   0.0833333   0.1666667  -0.4166667), wk =   0.0138889
        k(   49) = (   0.0833333   0.2500000   0.3333333), wk =   0.0138889
        k(   50) = (   0.0833333   0.2500000   0.4166667), wk =   0.0277778
        k(   51) = (   0.0833333   0.2500000  -0.5000000), wk =   0.0277778
        k(   52) = (   0.0833333   0.2500000  -0.4166667), wk =   0.0277778
        k(   53) = (   0.0833333   0.2500000  -0.3333333), wk =   0.0277778
        k(   54) = (   0.0833333   0.2500000  -0.2500000), wk =   0.0277778
        k(   55) = (   0.0833333   0.2500000  -0.1666667), wk =   0.0138889
        k(   56) = (   0.0833333   0.3333333   0.4166667), wk =   0.0138889
        k(   57) = (   0.0833333   0.3333333  -0.5000000), wk =   0.0277778
        k(   58) = (   0.0833333   0.3333333  -0.4166667), wk =   0.0277778
        k(   59) = (   0.0833333   0.3333333  -0.3333333), wk =   0.0277778
        k(   60) = (   0.0833333   0.3333333  -0.2500000), wk =   0.0138889
        k(   61) = (   0.0833333   0.4166667  -0.5000000), wk =   0.0138889
        k(   62) = (   0.0833333   0.4166667  -0.4166667), wk =   0.0277778
        k(   63) = (   0.0833333   0.4166667  -0.3333333), wk =   0.0138889
        k(   64) = (   0.0833333  -0.5000000  -0.4166667), wk =   0.0069444
        k(   65) = (   0.1666667   0.3333333  -0.5000000), wk =   0.0138889
        k(   66) = (   0.1666667   0.3333333  -0.4166667), wk =   0.0277778
        k(   67) = (   0.1666667   0.3333333  -0.3333333), wk =   0.0138889
        k(   68) = (   0.1666667   0.4166667  -0.4166667), wk =   0.0138889
        k(   69) = (   0.1666667   0.4166667  -0.3333333), wk =   0.0277778
        k(   70) = (   0.1666667   0.4166667  -0.2500000), wk =   0.0138889
        k(   71) = (   0.1666667  -0.5000000  -0.3333333), wk =   0.0069444
        k(   72) = (   0.2500000  -0.5000000  -0.2500000), wk =   0.0034722

     Dense  grid:    60375 G-vectors     FFT dimensions: (  60,  60,  60)

     Smooth grid:    21331 G-vectors     FFT dimensions: (  40,  40,  40)

     Dynamical RAM for                 wfc:       0.18 MB

     Dynamical RAM for     wfc (w. buffer):       3.91 MB

     Dynamical RAM for           str. fact:       0.46 MB

     Dynamical RAM for           local pot:       0.00 MB

     Dynamical RAM for          nlocal pot:       0.37 MB

     Dynamical RAM for                qrad:       6.42 MB

     Dynamical RAM for          rho,v,vnew:       2.01 MB

     Dynamical RAM for               rhoin:       0.67 MB

     Dynamical RAM for            rho*nmix:       7.37 MB

     Dynamical RAM for           G-vectors:       0.45 MB

     Dynamical RAM for          h,s,v(r/c):       0.06 MB

     Dynamical RAM for          <psi|beta>:       0.04 MB

     Dynamical RAM for      wfcinit/wfcrot:       0.47 MB

     Dynamical RAM for           addusdens:       3.29 MB

     Dynamical RAM for          addusforce:       3.20 MB

     Dynamical RAM for         addusstress:       3.43 MB

     Estimated static dynamical RAM per process >      16.19 MB

     Estimated max dynamical RAM per process >      26.99 MB

     Estimated total dynamical RAM >       1.13 GB

     Check: negative core charge=   -0.000002
     Generating pointlists ...
     new r_m :   0.2526 (alat units)  2.1670 (a.u.) for type    1
     new r_m :   0.2526 (alat units)  2.1670 (a.u.) for type    2
     new r_m :   0.2526 (alat units)  2.1670 (a.u.) for type    3
     new r_m :   0.2526 (alat units)  2.1670 (a.u.) for type    4

     The initial density is read from file :
     ./out/aiida.save/charge-density


     negative rho (up, down):  3.132E-02 3.269E-02
     Starting wfcs are   42 randomized atomic wfcs

     total cpu time spent up to now is        2.0 secs

     per-process dynamical memory:    27.9 Mb

     Self-consistent Calculation

     iteration #  1     ecut=    50.00 Ry     beta= 0.10
     CG style diagonalization

---- Real-time Memory Report at c_bands before calling an iterative solver
            65 MiB given to the printing process from OS
            27 MiB allocation reported by mallinfo(arena+hblkhd)
        487782 MiB available memory on the node where the printing process lives
------------------
     c_bands:  2 eigenvalues not converged
     c_bands:  1 eigenvalues not converged
     c_bands:  1 eigenvalues not converged
     c_bands:  2 eigenvalues not converged
     c_bands:  1 eigenvalues not converged
     c_bands:  3 eigenvalues not converged
     c_bands:  3 eigenvalues not converged
     c_bands:  1 eigenvalues not converged
     c_bands:  1 eigenvalues not converged
     c_bands:  2 eigenvalues not converged
     c_bands:  2 eigenvalues not converged
     c_bands:  4 eigenvalues not converged
     c_bands:  4 eigenvalues not converged
     c_bands:  4 eigenvalues not converged
     c_bands:  2 eigenvalues not converged
     c_bands:  4 eigenvalues not converged
     c_bands:  5 eigenvalues not converged
     c_bands:  3 eigenvalues not converged
     ethr =  1.00E-05,  avg # of iterations = 10.4

     negative rho (up, down):  3.133E-02 3.274E-02

     total cpu time spent up to now is        5.8 secs

     total energy              =    -563.85247936 Ry
     estimated scf accuracy    <       0.04597126 Ry

     total magnetization       =     0.62 Bohr mag/cell
     absolute magnetization    =     4.16 Bohr mag/cell

     iteration #  2     ecut=    50.00 Ry     beta= 0.10
     CG style diagonalization

---- Real-time Memory Report at c_bands before calling an iterative solver
            73 MiB given to the printing process from OS
            34 MiB allocation reported by mallinfo(arena+hblkhd)
        487412 MiB available memory on the node where the printing process lives
------------------
     ethr =  8.84E-05,  avg # of iterations =  3.0

     negative rho (up, down):  3.134E-02 3.273E-02

     total cpu time spent up to now is        6.7 secs

     total energy              =    -563.85612246 Ry
     estimated scf accuracy    <       0.04465271 Ry

     total magnetization       =     0.47 Bohr mag/cell
     absolute magnetization    =     4.18 Bohr mag/cell

     iteration #  3     ecut=    50.00 Ry     beta= 0.10
     CG style diagonalization

---- Real-time Memory Report at c_bands before calling an iterative solver
            73 MiB given to the printing process from OS
            34 MiB allocation reported by mallinfo(arena+hblkhd)
        487406 MiB available memory on the node where the printing process lives
------------------
     ethr =  8.59E-05,  avg # of iterations =  3.0

     negative rho (up, down):  3.135E-02 3.276E-02

     total cpu time spent up to now is        7.6 secs

     total energy              =    -563.86055562 Ry
     estimated scf accuracy    <       0.01085900 Ry

     total magnetization       =     0.45 Bohr mag/cell
     absolute magnetization    =     4.29 Bohr mag/cell

     iteration #  4     ecut=    50.00 Ry     beta= 0.10
     CG style diagonalization

---- Real-time Memory Report at c_bands before calling an iterative solver
            73 MiB given to the printing process from OS
            35 MiB allocation reported by mallinfo(arena+hblkhd)
        487403 MiB available memory on the node where the printing process lives
------------------
     ethr =  2.09E-05,  avg # of iterations =  3.0

     negative rho (up, down):  3.131E-02 3.266E-02

     total cpu time spent up to now is        8.5 secs

     total energy              =    -563.84967854 Ry
     estimated scf accuracy    <       0.00994683 Ry

     total magnetization       =     0.35 Bohr mag/cell
     absolute magnetization    =     4.42 Bohr mag/cell

     iteration #  5     ecut=    50.00 Ry     beta= 0.10
     CG style diagonalization

---- Real-time Memory Report at c_bands before calling an iterative solver
            74 MiB given to the printing process from OS
            35 MiB allocation reported by mallinfo(arena+hblkhd)
        487400 MiB available memory on the node where the printing process lives
------------------
     ethr =  1.91E-05,  avg # of iterations =  3.0

     negative rho (up, down):  3.112E-02 3.354E-02

     total cpu time spent up to now is        9.5 secs

     total energy              =    -563.73457408 Ry
     estimated scf accuracy    <       0.00849068 Ry

     total magnetization       =     0.74 Bohr mag/cell
     absolute magnetization    =     3.88 Bohr mag/cell

     iteration #  6     ecut=    50.00 Ry     beta= 0.10
     CG style diagonalization

---- Real-time Memory Report at c_bands before calling an iterative solver
            74 MiB given to the printing process from OS
            35 MiB allocation reported by mallinfo(arena+hblkhd)
        487396 MiB available memory on the node where the printing process lives
------------------
     ethr =  1.63E-05,  avg # of iterations =  4.1

     negative rho (up, down):  3.116E-02 3.320E-02

     total cpu time spent up to now is       10.8 secs

     total energy              =    -563.82787427 Ry
     estimated scf accuracy    <       0.14947106 Ry

     total magnetization       =     3.77 Bohr mag/cell
     absolute magnetization    =     4.06 Bohr mag/cell

     iteration #  7     ecut=    50.00 Ry     beta= 0.10
     CG style diagonalization

---- Real-time Memory Report at c_bands before calling an iterative solver
            74 MiB given to the printing process from OS
            35 MiB allocation reported by mallinfo(arena+hblkhd)
        487386 MiB available memory on the node where the printing process lives
------------------
     ethr =  1.63E-05,  avg # of iterations =  3.1

     negative rho (up, down):  3.123E-02 3.308E-02

     total cpu time spent up to now is       11.7 secs

     total energy              =    -563.82579179 Ry
     estimated scf accuracy    <       0.04555009 Ry

     total magnetization       =     3.21 Bohr mag/cell
     absolute magnetization    =     3.62 Bohr mag/cell

     iteration #  8     ecut=    50.00 Ry     beta= 0.10
     CG style diagonalization

---- Real-time Memory Report at c_bands before calling an iterative solver
            74 MiB given to the printing process from OS
            35 MiB allocation reported by mallinfo(arena+hblkhd)
        487383 MiB available memory on the node where the printing process lives
------------------
     ethr =  1.63E-05,  avg # of iterations =  3.2

     negative rho (up, down):  3.121E-02 3.374E-02

     total cpu time spent up to now is       12.8 secs

     total energy              =    -563.81752765 Ry
     estimated scf accuracy    <       0.00866824 Ry

     total magnetization       =     2.75 Bohr mag/cell
     absolute magnetization    =     3.28 Bohr mag/cell

     iteration #  9     ecut=    50.00 Ry     beta= 0.10
     CG style diagonalization

---- Real-time Memory Report at c_bands before calling an iterative solver
            75 MiB given to the printing process from OS
            35 MiB allocation reported by mallinfo(arena+hblkhd)
        487363 MiB available memory on the node where the printing process lives
------------------
     ethr =  1.63E-05,  avg # of iterations =  3.3

     negative rho (up, down):  3.125E-02 3.244E-02

     total cpu time spent up to now is       13.9 secs

     total energy              =    -563.81304547 Ry
     estimated scf accuracy    <       0.00328816 Ry

     total magnetization       =     3.33 Bohr mag/cell
     absolute magnetization    =     3.74 Bohr mag/cell

     iteration # 10     ecut=    50.00 Ry     beta= 0.10
     CG style diagonalization

---- Real-time Memory Report at c_bands before calling an iterative solver
            75 MiB given to the printing process from OS
            35 MiB allocation reported by mallinfo(arena+hblkhd)
        487361 MiB available memory on the node where the printing process lives
------------------
     ethr =  6.32E-06,  avg # of iterations =  4.0

     negative rho (up, down):  3.173E-02 3.280E-02

     total cpu time spent up to now is       15.3 secs

     total energy              =    -563.78800457 Ry
     estimated scf accuracy    <       0.04621857 Ry

     total magnetization       =     2.29 Bohr mag/cell
     absolute magnetization    =     2.93 Bohr mag/cell

     iteration # 11     ecut=    50.00 Ry     beta= 0.10
     CG style diagonalization

---- Real-time Memory Report at c_bands before calling an iterative solver
            75 MiB given to the printing process from OS
            36 MiB allocation reported by mallinfo(arena+hblkhd)
        487358 MiB available memory on the node where the printing process lives
------------------
     ethr =  6.32E-06,  avg # of iterations =  4.6

     negative rho (up, down):  3.218E-02 3.285E-02

     total cpu time spent up to now is       16.8 secs

     total energy              =    -563.89199016 Ry
     estimated scf accuracy    <       0.09450264 Ry

     total magnetization       =     0.13 Bohr mag/cell
     absolute magnetization    =     5.32 Bohr mag/cell

     iteration # 12     ecut=    50.00 Ry     beta= 0.10
     CG style diagonalization

---- Real-time Memory Report at c_bands before calling an iterative solver
            75 MiB given to the printing process from OS
            36 MiB allocation reported by mallinfo(arena+hblkhd)
        487358 MiB available memory on the node where the printing process lives
------------------
     ethr =  6.32E-06,  avg # of iterations =  3.2
     Minimization algorithm failed to find Fermi energy: reverting to bisection
     Possible cause: smearing is larger than the electronic band-gap.

     negative rho (up, down):  3.181E-02 3.283E-02

     total cpu time spent up to now is       17.8 secs

     total energy              =    -563.88304175 Ry
     estimated scf accuracy    <       0.12869215 Ry

     total magnetization       =     0.10 Bohr mag/cell
     absolute magnetization    =     5.62 Bohr mag/cell

     iteration # 13     ecut=    50.00 Ry     beta= 0.10
     CG style diagonalization

---- Real-time Memory Report at c_bands before calling an iterative solver
            76 MiB given to the printing process from OS
            36 MiB allocation reported by mallinfo(arena+hblkhd)
        487355 MiB available memory on the node where the printing process lives
------------------
     ethr =  6.32E-06,  avg # of iterations =  3.1

     negative rho (up, down):  3.179E-02 3.282E-02

     total cpu time spent up to now is       18.7 secs

     total energy              =    -563.88393410 Ry
     estimated scf accuracy    <       0.07933115 Ry

     total magnetization       =     0.12 Bohr mag/cell
     absolute magnetization    =     5.36 Bohr mag/cell

     iteration # 14     ecut=    50.00 Ry     beta= 0.10
     CG style diagonalization

---- Real-time Memory Report at c_bands before calling an iterative solver
            76 MiB given to the printing process from OS
            36 MiB allocation reported by mallinfo(arena+hblkhd)
        487354 MiB available memory on the node where the printing process lives
------------------
     ethr =  6.32E-06,  avg # of iterations =  3.0

     negative rho (up, down):  3.177E-02 3.284E-02

     total cpu time spent up to now is       19.6 secs

     total energy              =    -563.88248199 Ry
     estimated scf accuracy    <       0.07973677 Ry

     total magnetization       =     0.12 Bohr mag/cell
     absolute magnetization    =     5.35 Bohr mag/cell

     iteration # 15     ecut=    50.00 Ry     beta= 0.10
     CG style diagonalization

---- Real-time Memory Report at c_bands before calling an iterative solver
            76 MiB given to the printing process from OS
            36 MiB allocation reported by mallinfo(arena+hblkhd)
        487348 MiB available memory on the node where the printing process lives
------------------
     ethr =  6.32E-06,  avg # of iterations =  3.0

     negative rho (up, down):  3.197E-02 3.290E-02

     total cpu time spent up to now is       20.5 secs

     total energy              =    -563.88620337 Ry
     estimated scf accuracy    <       0.06360155 Ry

     total magnetization       =     0.12 Bohr mag/cell
     absolute magnetization    =     5.33 Bohr mag/cell

     iteration # 16     ecut=    50.00 Ry     beta= 0.10
     CG style diagonalization

---- Real-time Memory Report at c_bands before calling an iterative solver
            76 MiB given to the printing process from OS
            36 MiB allocation reported by mallinfo(arena+hblkhd)
        487346 MiB available memory on the node where the printing process lives
------------------
     ethr =  6.32E-06,  avg # of iterations =  3.0

     negative rho (up, down):  3.217E-02 3.289E-02

     total cpu time spent up to now is       21.4 secs

     total energy              =    -563.89020001 Ry
     estimated scf accuracy    <       0.06535596 Ry

     total magnetization       =     0.12 Bohr mag/cell
     absolute magnetization    =     5.47 Bohr mag/cell

     iteration # 17     ecut=    50.00 Ry     beta= 0.10
     CG style diagonalization

---- Real-time Memory Report at c_bands before calling an iterative solver
            77 MiB given to the printing process from OS
            37 MiB allocation reported by mallinfo(arena+hblkhd)
        487344 MiB available memory on the node where the printing process lives
------------------
     ethr =  6.32E-06,  avg # of iterations =  3.0
     Minimization algorithm failed to find Fermi energy: reverting to bisection
     Possible cause: smearing is larger than the electronic band-gap.

     negative rho (up, down):  3.549E-02 3.401E-02

     total cpu time spent up to now is       22.3 secs

     total energy              =    -563.83772818 Ry
     estimated scf accuracy    <       0.08372693 Ry

     total magnetization       =     0.12 Bohr mag/cell
     absolute magnetization    =     5.59 Bohr mag/cell

     iteration # 18     ecut=    50.00 Ry     beta= 0.10
     CG style diagonalization

---- Real-time Memory Report at c_bands before calling an iterative solver
            77 MiB given to the printing process from OS
            37 MiB allocation reported by mallinfo(arena+hblkhd)
        487344 MiB available memory on the node where the printing process lives
------------------
     ethr =  6.32E-06,  avg # of iterations =  4.9
     Minimization algorithm failed to find Fermi energy: reverting to bisection
     Possible cause: smearing is larger than the electronic band-gap.

     negative rho (up, down):  3.375E-02 3.369E-02

     total cpu time spent up to now is       24.0 secs

     total energy              =    -563.88575074 Ry
     estimated scf accuracy    <       0.17912075 Ry

     total magnetization       =    -0.16 Bohr mag/cell
     absolute magnetization    =     7.21 Bohr mag/cell

     iteration # 19     ecut=    50.00 Ry     beta= 0.10
     CG style diagonalization

---- Real-time Memory Report at c_bands before calling an iterative solver
            77 MiB given to the printing process from OS
            37 MiB allocation reported by mallinfo(arena+hblkhd)
        487342 MiB available memory on the node where the printing process lives
------------------
     ethr =  6.32E-06,  avg # of iterations =  3.9
     Minimization algorithm failed to find Fermi energy: reverting to bisection
     Possible cause: smearing is larger than the electronic band-gap.

     negative rho (up, down):  3.408E-02 3.402E-02

     total cpu time spent up to now is       25.2 secs

     total energy              =    -563.89044686 Ry
     estimated scf accuracy    <       0.04909802 Ry

     total magnetization       =     0.04 Bohr mag/cell
     absolute magnetization    =     6.48 Bohr mag/cell

     iteration # 20     ecut=    50.00 Ry     beta= 0.10
     CG style diagonalization

---- Real-time Memory Report at c_bands before calling an iterative solver
            77 MiB given to the printing process from OS
            37 MiB allocation reported by mallinfo(arena+hblkhd)
        487342 MiB available memory on the node where the printing process lives
------------------
     ethr =  6.32E-06,  avg # of iterations =  3.2
     Minimization algorithm failed to find Fermi energy: reverting to bisection
     Possible cause: smearing is larger than the electronic band-gap.

     negative rho (up, down):  3.593E-02 3.459E-02

     total cpu time spent up to now is       26.2 secs

     total energy              =    -563.85201779 Ry
     estimated scf accuracy    <       0.03170537 Ry

     total magnetization       =     0.06 Bohr mag/cell
     absolute magnetization    =     6.63 Bohr mag/cell

     iteration # 21     ecut=    50.00 Ry     beta= 0.10
     CG style diagonalization

---- Real-time Memory Report at c_bands before calling an iterative solver
            77 MiB given to the printing process from OS
            37 MiB allocation reported by mallinfo(arena+hblkhd)
        487341 MiB available memory on the node where the printing process lives
------------------
     ethr =  6.32E-06,  avg # of iterations =  4.0
     Minimization algorithm failed to find Fermi energy: reverting to bisection
     Possible cause: smearing is larger than the electronic band-gap.

     negative rho (up, down):  3.604E-02 3.462E-02

     total cpu time spent up to now is       27.7 secs

     total energy              =    -563.85719454 Ry
     estimated scf accuracy    <       0.06015387 Ry

     total magnetization       =    -0.07 Bohr mag/cell
     absolute magnetization    =     7.23 Bohr mag/cell

     iteration # 22     ecut=    50.00 Ry     beta= 0.10
     CG style diagonalization

---- Real-time Memory Report at c_bands before calling an iterative solver
            77 MiB given to the printing process from OS
            37 MiB allocation reported by mallinfo(arena+hblkhd)
        487340 MiB available memory on the node where the printing process lives
------------------
     ethr =  6.32E-06,  avg # of iterations =  3.0
     Minimization algorithm failed to find Fermi energy: reverting to bisection
     Possible cause: smearing is larger than the electronic band-gap.

     negative rho (up, down):  3.529E-02 3.453E-02

     total cpu time spent up to now is       28.6 secs

     total energy              =    -563.87076227 Ry
     estimated scf accuracy    <       0.06843299 Ry

     total magnetization       =    -0.09 Bohr mag/cell
     absolute magnetization    =     7.27 Bohr mag/cell

     iteration # 23     ecut=    50.00 Ry     beta= 0.10
     CG style diagonalization

---- Real-time Memory Report at c_bands before calling an iterative solver
            77 MiB given to the printing process from OS
            37 MiB allocation reported by mallinfo(arena+hblkhd)
        487339 MiB available memory on the node where the printing process lives
------------------
     ethr =  6.32E-06,  avg # of iterations =  3.1
     Minimization algorithm failed to find Fermi energy: reverting to bisection
     Possible cause: smearing is larger than the electronic band-gap.

     negative rho (up, down):  3.209E-02 3.334E-02

     total cpu time spent up to now is       29.6 secs

     total energy              =    -563.84891607 Ry
     estimated scf accuracy    <       0.04397323 Ry

     total magnetization       =    -0.01 Bohr mag/cell
     absolute magnetization    =     7.07 Bohr mag/cell

     iteration # 24     ecut=    50.00 Ry     beta= 0.10
     CG style diagonalization

---- Real-time Memory Report at c_bands before calling an iterative solver
            77 MiB given to the printing process from OS
            37 MiB allocation reported by mallinfo(arena+hblkhd)
        487338 MiB available memory on the node where the printing process lives
------------------
     ethr =  6.32E-06,  avg # of iterations =  4.9

     negative rho (up, down):  3.172E-02 3.333E-02

     total cpu time spent up to now is       31.3 secs

     total energy              =    -563.87834494 Ry
     estimated scf accuracy    <       0.00472746 Ry

     total magnetization       =     0.03 Bohr mag/cell
     absolute magnetization    =     5.49 Bohr mag/cell

     iteration # 25     ecut=    50.00 Ry     beta= 0.10
     CG style diagonalization

---- Real-time Memory Report at c_bands before calling an iterative solver
            77 MiB given to the printing process from OS
            37 MiB allocation reported by mallinfo(arena+hblkhd)
        487337 MiB available memory on the node where the printing process lives
------------------
     ethr =  6.32E-06,  avg # of iterations =  3.2

     negative rho (up, down):  3.173E-02 3.338E-02

     total cpu time spent up to now is       32.4 secs

     total energy              =    -563.88107287 Ry
     estimated scf accuracy    <       0.01693346 Ry

     total magnetization       =     0.04 Bohr mag/cell
     absolute magnetization    =     5.21 Bohr mag/cell

     iteration # 26     ecut=    50.00 Ry     beta= 0.10
     CG style diagonalization

---- Real-time Memory Report at c_bands before calling an iterative solver
            77 MiB given to the printing process from OS
            37 MiB allocation reported by mallinfo(arena+hblkhd)
        487336 MiB available memory on the node where the printing process lives
------------------
     ethr =  6.32E-06,  avg # of iterations =  3.1

     negative rho (up, down):  3.310E-02 3.378E-02

     total cpu time spent up to now is       33.3 secs

     total energy              =    -563.88328093 Ry
     estimated scf accuracy    <       0.04598690 Ry

     total magnetization       =     0.05 Bohr mag/cell
     absolute magnetization    =     5.10 Bohr mag/cell

     iteration # 27     ecut=    50.00 Ry     beta= 0.10
     CG style diagonalization

---- Real-time Memory Report at c_bands before calling an iterative solver
            77 MiB given to the printing process from OS
            37 MiB allocation reported by mallinfo(arena+hblkhd)
        487336 MiB available memory on the node where the printing process lives
------------------
     ethr =  6.32E-06,  avg # of iterations =  3.7
     Minimization algorithm failed to find Fermi energy: reverting to bisection
     Possible cause: smearing is larger than the electronic band-gap.

     negative rho (up, down):  3.288E-02 3.359E-02

     total cpu time spent up to now is       34.5 secs

     total energy              =    -563.89162911 Ry
     estimated scf accuracy    <       0.00561256 Ry

     total magnetization       =     0.05 Bohr mag/cell
     absolute magnetization    =     5.96 Bohr mag/cell

     iteration # 28     ecut=    50.00 Ry     beta= 0.10
     CG style diagonalization

---- Real-time Memory Report at c_bands before calling an iterative solver
            77 MiB given to the printing process from OS
            37 MiB allocation reported by mallinfo(arena+hblkhd)
        487335 MiB available memory on the node where the printing process lives
------------------
     ethr =  6.32E-06,  avg # of iterations =  3.1
     Minimization algorithm failed to find Fermi energy: reverting to bisection
     Possible cause: smearing is larger than the electronic band-gap.

     negative rho (up, down):  3.287E-02 3.342E-02

     total cpu time spent up to now is       35.5 secs

     total energy              =    -563.89122665 Ry
     estimated scf accuracy    <       0.00151278 Ry

     total magnetization       =     0.08 Bohr mag/cell
     absolute magnetization    =     5.84 Bohr mag/cell

     iteration # 29     ecut=    50.00 Ry     beta= 0.10
     CG style diagonalization

---- Real-time Memory Report at c_bands before calling an iterative solver
            77 MiB given to the printing process from OS
            37 MiB allocation reported by mallinfo(arena+hblkhd)
        487334 MiB available memory on the node where the printing process lives
------------------
     ethr =  2.91E-06,  avg # of iterations =  3.3
     Minimization algorithm failed to find Fermi energy: reverting to bisection
     Possible cause: smearing is larger than the electronic band-gap.

     negative rho (up, down):  3.305E-02 3.329E-02

     total cpu time spent up to now is       36.5 secs

     total energy              =    -563.89142803 Ry
     estimated scf accuracy    <       0.00404199 Ry

     total magnetization       =     0.13 Bohr mag/cell
     absolute magnetization    =     5.81 Bohr mag/cell

     iteration # 30     ecut=    50.00 Ry     beta= 0.10
     CG style diagonalization

---- Real-time Memory Report at c_bands before calling an iterative solver
            77 MiB given to the printing process from OS
            37 MiB allocation reported by mallinfo(arena+hblkhd)
        487324 MiB available memory on the node where the printing process lives
------------------
     ethr =  2.91E-06,  avg # of iterations =  3.2
     Minimization algorithm failed to find Fermi energy: reverting to bisection
     Possible cause: smearing is larger than the electronic band-gap.

     negative rho (up, down):  3.291E-02 3.361E-02

     total cpu time spent up to now is       37.5 secs

     total energy              =    -563.89137138 Ry
     estimated scf accuracy    <       0.01939085 Ry

     total magnetization       =     0.16 Bohr mag/cell
     absolute magnetization    =     5.81 Bohr mag/cell

     iteration # 31     ecut=    50.00 Ry     beta= 0.10
     CG style diagonalization

---- Real-time Memory Report at c_bands before calling an iterative solver
            77 MiB given to the printing process from OS
            37 MiB allocation reported by mallinfo(arena+hblkhd)
        487324 MiB available memory on the node where the printing process lives
------------------
     ethr =  2.91E-06,  avg # of iterations =  3.2
     Minimization algorithm failed to find Fermi energy: reverting to bisection
     Possible cause: smearing is larger than the electronic band-gap.

     negative rho (up, down):  3.285E-02 3.382E-02

     total cpu time spent up to now is       38.4 secs

     total energy              =    -563.89277290 Ry
     estimated scf accuracy    <       0.00080975 Ry

     total magnetization       =     0.10 Bohr mag/cell
     absolute magnetization    =     5.90 Bohr mag/cell

     iteration # 32     ecut=    50.00 Ry     beta= 0.10
     CG style diagonalization

---- Real-time Memory Report at c_bands before calling an iterative solver
            77 MiB given to the printing process from OS
            37 MiB allocation reported by mallinfo(arena+hblkhd)
        487324 MiB available memory on the node where the printing process lives
------------------
     ethr =  1.56E-06,  avg # of iterations =  3.4
     Minimization algorithm failed to find Fermi energy: reverting to bisection
     Possible cause: smearing is larger than the electronic band-gap.

     negative rho (up, down):  3.295E-02 3.382E-02

     total cpu time spent up to now is       39.5 secs

     total energy              =    -563.89314885 Ry
     estimated scf accuracy    <       0.00250828 Ry

     total magnetization       =     0.05 Bohr mag/cell
     absolute magnetization    =     5.99 Bohr mag/cell

     iteration # 33     ecut=    50.00 Ry     beta= 0.10
     CG style diagonalization

---- Real-time Memory Report at c_bands before calling an iterative solver
            77 MiB given to the printing process from OS
            37 MiB allocation reported by mallinfo(arena+hblkhd)
        487324 MiB available memory on the node where the printing process lives
------------------
     ethr =  1.56E-06,  avg # of iterations =  3.1
     Minimization algorithm failed to find Fermi energy: reverting to bisection
     Possible cause: smearing is larger than the electronic band-gap.

     negative rho (up, down):  3.297E-02 3.383E-02

     total cpu time spent up to now is       40.4 secs

     total energy              =    -563.89337181 Ry
     estimated scf accuracy    <       0.00071372 Ry

     total magnetization       =     0.06 Bohr mag/cell
     absolute magnetization    =     6.01 Bohr mag/cell

     iteration # 34     ecut=    50.00 Ry     beta= 0.10
     CG style diagonalization

---- Real-time Memory Report at c_bands before calling an iterative solver
            77 MiB given to the printing process from OS
            37 MiB allocation reported by mallinfo(arena+hblkhd)
        487324 MiB available memory on the node where the printing process lives
------------------
     ethr =  1.37E-06,  avg # of iterations =  3.0
     Minimization algorithm failed to find Fermi energy: reverting to bisection
     Possible cause: smearing is larger than the electronic band-gap.

     negative rho (up, down):  3.307E-02 3.386E-02

     total cpu time spent up to now is       41.3 secs

     total energy              =    -563.89360132 Ry
     estimated scf accuracy    <       0.00086117 Ry

     total magnetization       =     0.07 Bohr mag/cell
     absolute magnetization    =     6.02 Bohr mag/cell

     iteration # 35     ecut=    50.00 Ry     beta= 0.10
     CG style diagonalization

---- Real-time Memory Report at c_bands before calling an iterative solver
            77 MiB given to the printing process from OS
            37 MiB allocation reported by mallinfo(arena+hblkhd)
        487322 MiB available memory on the node where the printing process lives
------------------
     ethr =  1.37E-06,  avg # of iterations =  3.0
     Minimization algorithm failed to find Fermi energy: reverting to bisection
     Possible cause: smearing is larger than the electronic band-gap.

     negative rho (up, down):  3.308E-02 3.388E-02

     total cpu time spent up to now is       42.2 secs

     total energy              =    -563.89364200 Ry
     estimated scf accuracy    <       0.00092509 Ry

     total magnetization       =     0.08 Bohr mag/cell
     absolute magnetization    =     6.07 Bohr mag/cell

     iteration # 36     ecut=    50.00 Ry     beta= 0.10
     CG style diagonalization

---- Real-time Memory Report at c_bands before calling an iterative solver
            77 MiB given to the printing process from OS
            37 MiB allocation reported by mallinfo(arena+hblkhd)
        487322 MiB available memory on the node where the printing process lives
------------------
     ethr =  1.37E-06,  avg # of iterations =  3.0
     Minimization algorithm failed to find Fermi energy: reverting to bisection
     Possible cause: smearing is larger than the electronic band-gap.

     negative rho (up, down):  3.307E-02 3.390E-02

     total cpu time spent up to now is       43.1 secs

     total energy              =    -563.89365145 Ry
     estimated scf accuracy    <       0.00083722 Ry

     total magnetization       =     0.09 Bohr mag/cell
     absolute magnetization    =     6.11 Bohr mag/cell

     iteration # 37     ecut=    50.00 Ry     beta= 0.10
     CG style diagonalization

---- Real-time Memory Report at c_bands before calling an iterative solver
            78 MiB given to the printing process from OS
            37 MiB allocation reported by mallinfo(arena+hblkhd)
        487322 MiB available memory on the node where the printing process lives
------------------
     ethr =  1.37E-06,  avg # of iterations =  3.0
     Minimization algorithm failed to find Fermi energy: reverting to bisection
     Possible cause: smearing is larger than the electronic band-gap.

     negative rho (up, down):  3.306E-02 3.389E-02

     total cpu time spent up to now is       44.0 secs

     total energy              =    -563.89361704 Ry
     estimated scf accuracy    <       0.00108017 Ry

     total magnetization       =     0.09 Bohr mag/cell
     absolute magnetization    =     6.14 Bohr mag/cell

     iteration # 38     ecut=    50.00 Ry     beta= 0.10
     CG style diagonalization

---- Real-time Memory Report at c_bands before calling an iterative solver
            78 MiB given to the printing process from OS
            37 MiB allocation reported by mallinfo(arena+hblkhd)
        487322 MiB available memory on the node where the printing process lives
------------------
     ethr =  1.37E-06,  avg # of iterations =  3.0
     Minimization algorithm failed to find Fermi energy: reverting to bisection
     Possible cause: smearing is larger than the electronic band-gap.

     negative rho (up, down):  3.306E-02 3.388E-02

     total cpu time spent up to now is       44.9 secs

     total energy              =    -563.89361743 Ry
     estimated scf accuracy    <       0.00053925 Ry

     total magnetization       =     0.08 Bohr mag/cell
     absolute magnetization    =     6.12 Bohr mag/cell

     iteration # 39     ecut=    50.00 Ry     beta= 0.10
     CG style diagonalization

---- Real-time Memory Report at c_bands before calling an iterative solver
            78 MiB given to the printing process from OS
            37 MiB allocation reported by mallinfo(arena+hblkhd)
        487322 MiB available memory on the node where the printing process lives
------------------
     ethr =  1.04E-06,  avg # of iterations =  3.0
     Minimization algorithm failed to find Fermi energy: reverting to bisection
     Possible cause: smearing is larger than the electronic band-gap.

     negative rho (up, down):  3.304E-02 3.388E-02

     total cpu time spent up to now is       45.8 secs

     total energy              =    -563.89361181 Ry
     estimated scf accuracy    <       0.00050371 Ry

     total magnetization       =     0.08 Bohr mag/cell
     absolute magnetization    =     6.12 Bohr mag/cell

     iteration # 40     ecut=    50.00 Ry     beta= 0.10
     CG style diagonalization

---- Real-time Memory Report at c_bands before calling an iterative solver
            78 MiB given to the printing process from OS
            37 MiB allocation reported by mallinfo(arena+hblkhd)
        487321 MiB available memory on the node where the printing process lives
------------------
     ethr =  9.69E-07,  avg # of iterations =  3.0
     Minimization algorithm failed to find Fermi energy: reverting to bisection
     Possible cause: smearing is larger than the electronic band-gap.

     negative rho (up, down):  3.308E-02 3.397E-02

     total cpu time spent up to now is       46.7 secs

     total energy              =    -563.89371677 Ry
     estimated scf accuracy    <       0.00050519 Ry

     total magnetization       =     0.08 Bohr mag/cell
     absolute magnetization    =     6.12 Bohr mag/cell

     iteration # 41     ecut=    50.00 Ry     beta= 0.10
     CG style diagonalization

---- Real-time Memory Report at c_bands before calling an iterative solver
            78 MiB given to the printing process from OS
            37 MiB allocation reported by mallinfo(arena+hblkhd)
        487320 MiB available memory on the node where the printing process lives
------------------
     ethr =  9.69E-07,  avg # of iterations =  3.0
     Minimization algorithm failed to find Fermi energy: reverting to bisection
     Possible cause: smearing is larger than the electronic band-gap.

     negative rho (up, down):  3.317E-02 3.400E-02

     total cpu time spent up to now is       47.6 secs

     total energy              =    -563.89382551 Ry
     estimated scf accuracy    <       0.00063757 Ry

     total magnetization       =     0.08 Bohr mag/cell
     absolute magnetization    =     6.20 Bohr mag/cell

     iteration # 42     ecut=    50.00 Ry     beta= 0.10
     CG style diagonalization

---- Real-time Memory Report at c_bands before calling an iterative solver
            78 MiB given to the printing process from OS
            37 MiB allocation reported by mallinfo(arena+hblkhd)
        487320 MiB available memory on the node where the printing process lives
------------------
     ethr =  9.69E-07,  avg # of iterations =  3.0
     Minimization algorithm failed to find Fermi energy: reverting to bisection
     Possible cause: smearing is larger than the electronic band-gap.

     negative rho (up, down):  3.312E-02 3.398E-02

     total cpu time spent up to now is       48.5 secs

     total energy              =    -563.89377501 Ry
     estimated scf accuracy    <       0.00028757 Ry

     total magnetization       =     0.08 Bohr mag/cell
     absolute magnetization    =     6.23 Bohr mag/cell

     iteration # 43     ecut=    50.00 Ry     beta= 0.10
     CG style diagonalization

---- Real-time Memory Report at c_bands before calling an iterative solver
            78 MiB given to the printing process from OS
            37 MiB allocation reported by mallinfo(arena+hblkhd)
        487320 MiB available memory on the node where the printing process lives
------------------
     ethr =  5.53E-07,  avg # of iterations =  3.0
     Minimization algorithm failed to find Fermi energy: reverting to bisection
     Possible cause: smearing is larger than the electronic band-gap.

     negative rho (up, down):  3.315E-02 3.406E-02

     total cpu time spent up to now is       49.4 secs

     total energy              =    -563.89375977 Ry
     estimated scf accuracy    <       0.00060422 Ry

     total magnetization       =     0.08 Bohr mag/cell
     absolute magnetization    =     6.19 Bohr mag/cell

     iteration # 44     ecut=    50.00 Ry     beta= 0.10
     CG style diagonalization

---- Real-time Memory Report at c_bands before calling an iterative solver
            78 MiB given to the printing process from OS
            37 MiB allocation reported by mallinfo(arena+hblkhd)
        487320 MiB available memory on the node where the printing process lives
------------------
     ethr =  5.53E-07,  avg # of iterations =  3.1
     Minimization algorithm failed to find Fermi energy: reverting to bisection
     Possible cause: smearing is larger than the electronic band-gap.

     negative rho (up, down):  3.314E-02 3.405E-02

     total cpu time spent up to now is       50.4 secs

     total energy              =    -563.89383302 Ry
     estimated scf accuracy    <       0.00001857 Ry

     total magnetization       =     0.08 Bohr mag/cell
     absolute magnetization    =     6.23 Bohr mag/cell

     iteration # 45     ecut=    50.00 Ry     beta= 0.10
     CG style diagonalization

---- Real-time Memory Report at c_bands before calling an iterative solver
            78 MiB given to the printing process from OS
            37 MiB allocation reported by mallinfo(arena+hblkhd)
        487319 MiB available memory on the node where the printing process lives
------------------
     ethr =  3.57E-08,  avg # of iterations =  3.5
     Minimization algorithm failed to find Fermi energy: reverting to bisection
     Possible cause: smearing is larger than the electronic band-gap.

     negative rho (up, down):  3.315E-02 3.406E-02

     total cpu time spent up to now is       51.5 secs

     total energy              =    -563.89384812 Ry
     estimated scf accuracy    <       0.00012725 Ry

     total magnetization       =     0.08 Bohr mag/cell
     absolute magnetization    =     6.23 Bohr mag/cell

     iteration # 46     ecut=    50.00 Ry     beta= 0.10
     CG style diagonalization

---- Real-time Memory Report at c_bands before calling an iterative solver
            78 MiB given to the printing process from OS
            37 MiB allocation reported by mallinfo(arena+hblkhd)
        487319 MiB available memory on the node where the printing process lives
------------------
     ethr =  3.57E-08,  avg # of iterations =  3.0
     Minimization algorithm failed to find Fermi energy: reverting to bisection
     Possible cause: smearing is larger than the electronic band-gap.

     negative rho (up, down):  3.315E-02 3.405E-02

     total cpu time spent up to now is       52.4 secs

     total energy              =    -563.89384166 Ry
     estimated scf accuracy    <       0.00010823 Ry

     total magnetization       =     0.08 Bohr mag/cell
     absolute magnetization    =     6.24 Bohr mag/cell

     iteration # 47     ecut=    50.00 Ry     beta= 0.10
     CG style diagonalization

---- Real-time Memory Report at c_bands before calling an iterative solver
            78 MiB given to the printing process from OS
            37 MiB allocation reported by mallinfo(arena+hblkhd)
        487318 MiB available memory on the node where the printing process lives
------------------
     ethr =  3.57E-08,  avg # of iterations =  3.1
     Minimization algorithm failed to find Fermi energy: reverting to bisection
     Possible cause: smearing is larger than the electronic band-gap.

     negative rho (up, down):  3.315E-02 3.406E-02

     total cpu time spent up to now is       53.3 secs

     total energy              =    -563.89384239 Ry
     estimated scf accuracy    <       0.00007594 Ry

     total magnetization       =     0.08 Bohr mag/cell
     absolute magnetization    =     6.22 Bohr mag/cell

     iteration # 48     ecut=    50.00 Ry     beta= 0.10
     CG style diagonalization

---- Real-time Memory Report at c_bands before calling an iterative solver
            78 MiB given to the printing process from OS
            37 MiB allocation reported by mallinfo(arena+hblkhd)
        487318 MiB available memory on the node where the printing process lives
------------------
     ethr =  3.57E-08,  avg # of iterations =  3.0
     Minimization algorithm failed to find Fermi energy: reverting to bisection
     Possible cause: smearing is larger than the electronic band-gap.

     negative rho (up, down):  3.316E-02 3.406E-02

     total cpu time spent up to now is       54.2 secs

     total energy              =    -563.89384217 Ry
     estimated scf accuracy    <       0.00003481 Ry

     total magnetization       =     0.08 Bohr mag/cell
     absolute magnetization    =     6.23 Bohr mag/cell

     iteration # 49     ecut=    50.00 Ry     beta= 0.10
     CG style diagonalization

---- Real-time Memory Report at c_bands before calling an iterative solver
            78 MiB given to the printing process from OS
            37 MiB allocation reported by mallinfo(arena+hblkhd)
        487318 MiB available memory on the node where the printing process lives
------------------
     ethr =  3.57E-08,  avg # of iterations =  3.0
     Minimization algorithm failed to find Fermi energy: reverting to bisection
     Possible cause: smearing is larger than the electronic band-gap.

     negative rho (up, down):  3.316E-02 3.406E-02

     total cpu time spent up to now is       55.1 secs

     total energy              =    -563.89384108 Ry
     estimated scf accuracy    <       0.00002470 Ry

     total magnetization       =     0.08 Bohr mag/cell
     absolute magnetization    =     6.23 Bohr mag/cell

     iteration # 50     ecut=    50.00 Ry     beta= 0.10
     CG style diagonalization

---- Real-time Memory Report at c_bands before calling an iterative solver
            78 MiB given to the printing process from OS
            37 MiB allocation reported by mallinfo(arena+hblkhd)
        487318 MiB available memory on the node where the printing process lives
------------------
     ethr =  3.57E-08,  avg # of iterations =  3.0
     Minimization algorithm failed to find Fermi energy: reverting to bisection
     Possible cause: smearing is larger than the electronic band-gap.

     negative rho (up, down):  3.316E-02 3.406E-02

     total cpu time spent up to now is       56.0 secs

     total energy              =    -563.89384154 Ry
     estimated scf accuracy    <       0.00001492 Ry

     total magnetization       =     0.08 Bohr mag/cell
     absolute magnetization    =     6.23 Bohr mag/cell

     iteration # 51     ecut=    50.00 Ry     beta= 0.10
     CG style diagonalization

---- Real-time Memory Report at c_bands before calling an iterative solver
            78 MiB given to the printing process from OS
            37 MiB allocation reported by mallinfo(arena+hblkhd)
        487317 MiB available memory on the node where the printing process lives
------------------
     ethr =  2.87E-08,  avg # of iterations =  3.0
     Minimization algorithm failed to find Fermi energy: reverting to bisection
     Possible cause: smearing is larger than the electronic band-gap.

     negative rho (up, down):  3.316E-02 3.406E-02

     total cpu time spent up to now is       56.9 secs

     total energy              =    -563.89384341 Ry
     estimated scf accuracy    <       0.00001849 Ry

     total magnetization       =     0.08 Bohr mag/cell
     absolute magnetization    =     6.23 Bohr mag/cell

     iteration # 52     ecut=    50.00 Ry     beta= 0.10
     CG style diagonalization

---- Real-time Memory Report at c_bands before calling an iterative solver
            78 MiB given to the printing process from OS
            37 MiB allocation reported by mallinfo(arena+hblkhd)
        487316 MiB available memory on the node where the printing process lives
------------------
     ethr =  2.87E-08,  avg # of iterations =  3.0
     Minimization algorithm failed to find Fermi energy: reverting to bisection
     Possible cause: smearing is larger than the electronic band-gap.

     negative rho (up, down):  3.316E-02 3.406E-02

     total cpu time spent up to now is       57.8 secs

     total energy              =    -563.89384063 Ry
     estimated scf accuracy    <       0.00003120 Ry

     total magnetization       =     0.08 Bohr mag/cell
     absolute magnetization    =     6.23 Bohr mag/cell

     iteration # 53     ecut=    50.00 Ry     beta= 0.10
     CG style diagonalization

---- Real-time Memory Report at c_bands before calling an iterative solver
            78 MiB given to the printing process from OS
            37 MiB allocation reported by mallinfo(arena+hblkhd)
        487316 MiB available memory on the node where the printing process lives
------------------
     ethr =  2.87E-08,  avg # of iterations =  3.0
     Minimization algorithm failed to find Fermi energy: reverting to bisection
     Possible cause: smearing is larger than the electronic band-gap.

     negative rho (up, down):  3.317E-02 3.407E-02

     total cpu time spent up to now is       58.7 secs

     total energy              =    -563.89384485 Ry
     estimated scf accuracy    <       0.00001049 Ry

     total magnetization       =     0.08 Bohr mag/cell
     absolute magnetization    =     6.23 Bohr mag/cell

     iteration # 54     ecut=    50.00 Ry     beta= 0.10
     CG style diagonalization

---- Real-time Memory Report at c_bands before calling an iterative solver
            78 MiB given to the printing process from OS
            37 MiB allocation reported by mallinfo(arena+hblkhd)
        487316 MiB available memory on the node where the printing process lives
------------------
     ethr =  2.02E-08,  avg # of iterations =  3.3
     Minimization algorithm failed to find Fermi energy: reverting to bisection
     Possible cause: smearing is larger than the electronic band-gap.

     negative rho (up, down):  3.317E-02 3.407E-02

     total cpu time spent up to now is       59.7 secs

     total energy              =    -563.89384598 Ry
     estimated scf accuracy    <       0.00007436 Ry

     total magnetization       =     0.08 Bohr mag/cell
     absolute magnetization    =     6.23 Bohr mag/cell

     iteration # 55     ecut=    50.00 Ry     beta= 0.10
     CG style diagonalization

---- Real-time Memory Report at c_bands before calling an iterative solver
            78 MiB given to the printing process from OS
            37 MiB allocation reported by mallinfo(arena+hblkhd)
        487316 MiB available memory on the node where the printing process lives
------------------
     ethr =  2.02E-08,  avg # of iterations =  3.0
     Minimization algorithm failed to find Fermi energy: reverting to bisection
     Possible cause: smearing is larger than the electronic band-gap.

     negative rho (up, down):  3.316E-02 3.406E-02

     total cpu time spent up to now is       60.6 secs

     total energy              =    -563.89383430 Ry
     estimated scf accuracy    <       0.00005043 Ry

     total magnetization       =     0.08 Bohr mag/cell
     absolute magnetization    =     6.23 Bohr mag/cell

     iteration # 56     ecut=    50.00 Ry     beta= 0.10
     CG style diagonalization

---- Real-time Memory Report at c_bands before calling an iterative solver
            78 MiB given to the printing process from OS
            37 MiB allocation reported by mallinfo(arena+hblkhd)
        487309 MiB available memory on the node where the printing process lives
------------------
     ethr =  2.02E-08,  avg # of iterations =  3.4
     Minimization algorithm failed to find Fermi energy: reverting to bisection
     Possible cause: smearing is larger than the electronic band-gap.

     negative rho (up, down):  3.316E-02 3.406E-02

     total cpu time spent up to now is       61.7 secs

     total energy              =    -563.89384044 Ry
     estimated scf accuracy    <       0.00000113 Ry

     total magnetization       =     0.08 Bohr mag/cell
     absolute magnetization    =     6.22 Bohr mag/cell

     iteration # 57     ecut=    50.00 Ry     beta= 0.10
     CG style diagonalization

---- Real-time Memory Report at c_bands before calling an iterative solver
            78 MiB given to the printing process from OS
            37 MiB allocation reported by mallinfo(arena+hblkhd)
        487309 MiB available memory on the node where the printing process lives
------------------
     ethr =  2.17E-09,  avg # of iterations =  3.3
     Minimization algorithm failed to find Fermi energy: reverting to bisection
     Possible cause: smearing is larger than the electronic band-gap.

     negative rho (up, down):  3.316E-02 3.406E-02

     total cpu time spent up to now is       62.7 secs

     total energy              =    -563.89384046 Ry
     estimated scf accuracy    <       0.00000163 Ry

     total magnetization       =     0.08 Bohr mag/cell
     absolute magnetization    =     6.22 Bohr mag/cell

[...]
   -22.6095 -10.5414 -10.5342 -10.5221   1.8407   1.8540   1.8706   1.8886
     1.9150   9.5096  11.9404  12.4565  13.5069  14.1465  14.6564  14.9780
    15.2297  15.4207  16.4628  16.7015  16.9169  17.8649  18.1183  18.4478
    19.0362  19.2606  19.7204

     occupation numbers 
     1.0000   1.0000   1.0000   1.0000   1.0000   1.0000   1.0000   1.0000
     1.0000   1.0000   1.0000   1.0000   1.0000   1.0000   1.0000   1.0000
     1.0000   1.0000   1.0000   1.0000   1.0000   1.0000   1.0000   1.0099
     1.0770   0.9873   0.0000   0.0000   0.0000   0.0000   0.0000   0.0000
     0.0000   0.0000   0.0000

          k =-0.0000-0.3536 0.4714 (  2662 PWs)   bands (ev):

   -53.6690 -48.6151 -32.3432 -25.1835 -25.1825 -25.1791 -22.6170 -22.6156
   -22.6099 -10.5408 -10.5334 -10.5225   1.8471   1.8498   1.8678   1.8913
     1.9151   9.3578  11.8788  12.6684  13.3310  14.1887  14.6756  14.9206
    15.2198  15.5520  16.2899  16.7438  16.9042  17.9583  18.1602  18.5035
    19.0991  19.4054  19.8925

     occupation numbers 
     1.0000   1.0000   1.0000   1.0000   1.0000   1.0000   1.0000   1.0000
     1.0000   1.0000   1.0000   1.0000   1.0000   1.0000   1.0000   1.0000
     1.0000   1.0000   1.0000   1.0000   1.0000   1.0000   1.0001   1.0046
     1.0745   0.6994   0.0001   0.0000   0.0000   0.0000   0.0000   0.0000
     0.0000   0.0000   0.0000

          k =-0.1179-0.5893 0.7071 (  2670 PWs)   bands (ev):

   -53.6690 -48.6151 -32.3434 -25.1833 -25.1830 -25.1792 -22.6161 -22.6159
   -22.6098 -10.5521 -10.5227 -10.5210   1.8152   1.8711   1.8744   1.8797
     1.9039   9.2795  11.7811  13.1312  14.0728  14.3949  14.6086  14.7631
    15.1075  15.2072  16.6604  16.7096  17.0706  17.7124  17.7889  18.0129
    18.5218  19.5208  19.7269

     occupation numbers 
     1.0000   1.0000   1.0000   1.0000   1.0000   1.0000   1.0000   1.0000
     1.0000   1.0000   1.0000   1.0000   1.0000   1.0000   1.0000   1.0000
     1.0000   1.0000   1.0000   1.0000   1.0000   1.0000   1.0000   1.0003
     1.0378   1.0710   0.0000   0.0000   0.0000   0.0000   0.0000   0.0000
     0.0000   0.0000   0.0000

          k =-0.0589-0.5303 0.6482 (  2659 PWs)   bands (ev):

   -53.6690 -48.6151 -32.3436 -25.1835 -25.1830 -25.1790 -22.6165 -22.6160
   -22.6093 -10.5499 -10.5260 -10.5213   1.8204   1.8672   1.8747   1.8796
     1.9087   9.4335  11.9379  12.8164  13.8554  14.2657  14.6582  14.9280
    15.1000  15.1951  16.6547  16.7410  17.0082  17.7045  17.9302  18.2599
    18.4838  19.2317  19.5598

     occupation numbers 
     1.0000   1.0000   1.0000   1.0000   1.0000   1.0000   1.0000   1.0000
     1.0000   1.0000   1.0000   1.0000   1.0000   1.0000   1.0000   1.0000
     1.0000   1.0000   1.0000   1.0000   1.0000   1.0000   1.0000   1.0051
     1.0355   1.0672   0.0000   0.0000   0.0000   0.0000   0.0000   0.0000
     0.0000   0.0000   0.0000

          k =-0.0000-0.4714 0.5893 (  2648 PWs)   bands (ev):

   -53.6690 -48.6151 -32.3436 -25.1837 -25.1829 -25.1788 -22.6170 -22.6160
   -22.6091 -10.5454 -10.5309 -10.5217   1.8299   1.8609   1.8735   1.8826
     1.9127   9.5153  12.1382  12.4162  13.7027  14.1270  14.6826  15.0480
    15.0949  15.2740  16.6004  16.7271  16.9608  17.7479  18.0017  18.4311
    18.8610  19.1174  19.4189

     occupation numbers 
     1.0000   1.0000   1.0000   1.0000   1.0000   1.0000   1.0000   1.0000
     1.0000   1.0000   1.0000   1.0000   1.0000   1.0000   1.0000   1.0000
     1.0000   1.0000   1.0000   1.0000   1.0000   1.0000   1.0001   1.0218
     1.0340   1.0833   0.0000   0.0000   0.0000   0.0000   0.0000   0.0000
     0.0000   0.0000   0.0000

          k =-0.7071 0.1179-0.0000 (  2680 PWs)   bands (ev):

   -53.6690 -48.6151 -32.3436 -25.1834 -25.1831 -25.1791 -22.6161 -22.6161
   -22.6094 -10.5533 -10.5227 -10.5209   1.8126   1.8724   1.8741   1.8770
     1.9060   9.4038  11.8999  13.0335  13.9394  14.4529  14.5547  14.9684
    15.0146  15.1473  16.7099  16.7830  17.0518  17.6443  17.7685  17.9305
    18.4724  19.2964  19.4750

     occupation numbers 
     1.0000   1.0000   1.0000   1.0000   1.0000   1.0000   1.0000   1.0000
     1.0000   1.0000   1.0000   1.0000   1.0000   1.0000   1.0000   1.0000
     1.0000   1.0000   1.0000   1.0000   1.0000   1.0000   1.0000   1.0088
     1.0152   1.0510   0.0000   0.0000   0.0000   0.0000   0.0000   0.0000
     0.0000   0.0000   0.0000

          k =-0.2357-0.4714 0.7071 (  2666 PWs)   bands (ev):

   -53.6690 -48.6151 -32.3430 -25.1833 -25.1826 -25.1794 -22.6164 -22.6156
   -22.6104 -10.5448 -10.5273 -10.5223   1.8332   1.8601   1.8687   1.8909
     1.9082   9.1028  11.8385  13.0344  13.5036  14.2812  14.7435  14.8650
    15.0025  15.4789  16.4003  16.7233  16.9789  17.9254  18.0677  18.5847
    18.8451  19.5440  20.1922

     occupation numbers 
     1.0000   1.0000   1.0000   1.0000   1.0000   1.0000   1.0000   1.0000
     1.0000   1.0000   1.0000   1.0000   1.0000   1.0000   1.0000   1.0000
     1.0000   1.0000   1.0000   1.0000   1.0000   1.0000   1.0002   1.0020
     1.0133   0.8803   0.0000   0.0000   0.0000   0.0000   0.0000   0.0000
     0.0000   0.0000   0.0000

          k =-0.1768-0.4125 0.6482 (  2673 PWs)   bands (ev):

   -53.6690 -48.6151 -32.3433 -25.1836 -25.1827 -25.1790 -22.6168 -22.6158
   -22.6097 -10.5433 -10.5313 -10.5223   1.8387   1.8546   1.8710   1.8893
     1.9132   9.3957  11.8467  12.6866  13.4891  14.2132  14.7277  14.9007
    15.1108  15.4766  16.4528  16.7135  16.9193  17.8909  18.1355  18.6051
    18.7991  19.1867  19.9160

     occupation numbers 
     1.0000   1.0000   1.0000   1.0000   1.0000   1.0000   1.0000   1.0000
     1.0000   1.0000   1.0000   1.0000   1.0000   1.0000   1.0000   1.0000
     1.0000   1.0000   1.0000   1.0000   1.0000   1.0000   1.0002   1.0035
     1.0389   0.8852   0.0000   0.0000   0.0000   0.0000   0.0000   0.0000
     0.0000   0.0000   0.0000

          k =-0.1179-0.3536 0.5893 (  2666 PWs)   bands (ev):

   -53.6690 -48.6151 -32.3434 -25.1836 -25.1827 -25.1789 -22.6170 -22.6159
   -22.6095 -10.5418 -10.5337 -10.5223   1.8447   1.8487   1.8719   1.8888
     1.9151   9.5137  11.8724  12.5279  13.4965  14.1837  14.6984  14.9071
    15.1913  15.4387  16.5291  16.6941  16.8827  17.8588  18.1831  18.6421
    18.7324  19.1196  19.7582

     occupation numbers 
     1.0000   1.0000   1.0000   1.0000   1.0000   1.0000   1.0000   1.0000
     1.0000   1.0000   1.0000   1.0000   1.0000   1.0000   1.0000   1.0000
     1.0000   1.0000   1.0000   1.0000   1.0000   1.0000   1.0001   1.0038
     1.0660   0.9585   0.0000   0.0000   0.0000   0.0000   0.0000   0.0000
     0.0000   0.0000   0.0000

          k =-0.1179-0.4714 0.7071 (  2664 PWs)   bands (ev):

   -53.6690 -48.6151 -32.3434 -25.1836 -25.1828 -25.1789 -22.6166 -22.6161
   -22.6094 -10.5466 -10.5285 -10.5220   1.8284   1.8609   1.8740   1.8835
     1.9107   9.4122  11.9105  12.7678  13.6645  14.2655  14.7067  14.9276
    15.0306  15.3421  16.5924  16.7133  16.9729  17.7907  18.0692  18.4121
    18.5915  19.1301  19.6864

     occupation numbers 
     1.0000   1.0000   1.0000   1.0000   1.0000   1.0000   1.0000   1.0000
     1.0000   1.0000   1.0000   1.0000   1.0000   1.0000   1.0000   1.0000
     1.0000   1.0000   1.0000   1.0000   1.0000   1.0000   1.0001   1.0051
     1.0182   1.0668   0.0000   0.0000   0.0000   0.0000   0.0000   0.0000
     0.0000   0.0000   0.0000

          k =-0.0589-0.4125 0.6482 (  2662 PWs)   bands (ev):

   -53.6690 -48.6151 -32.3436 -25.1838 -25.1828 -25.1788 -22.6169 -22.6162
   -22.6090 -10.5428 -10.5331 -10.5222   1.8363   1.8535   1.8745   1.8827
     1.9143   9.5247  12.1214  12.4707  13.5363  14.2332  14.6834  14.9794
    15.0498  15.3498  16.6303  16.7427  16.9186  17.7817  18.1524  18.5331
    18.6889  18.9081  19.3607

     occupation numbers 
     1.0000   1.0000   1.0000   1.0000   1.0000   1.0000   1.0000   1.0000
     1.0000   1.0000   1.0000   1.0000   1.0000   1.0000   1.0000   1.0000
     1.0000   1.0000   1.0000   1.0000   1.0000   1.0000   1.0001   1.0101
     1.0223   1.0622   0.0000   0.0000   0.0000   0.0000   0.0000   0.0000
     0.0000   0.0000   0.0000

          k = 0.0000-0.3536 0.5893 (  2665 PWs)   bands (ev):

   -53.6690 -48.6151 -32.3435 -25.1838 -25.1827 -25.1788 -22.6170 -22.6161
   -22.6091 -10.5401 -10.5356 -10.5223   1.8453   1.8460   1.8736   1.8846
     1.9152   9.5204  12.1067  12.4182  13.4935  14.1869  14.7133  14.9853
    15.0612  15.4064  16.5629  16.7344  16.9155  17.8175  18.1782  18.5281
    18.7880  19.0117  19.4413

     occupation numbers 
     1.0000   1.0000   1.0000   1.0000   1.0000   1.0000   1.0000   1.0000
     1.0000   1.0000   1.0000   1.0000   1.0000   1.0000   1.0000   1.0000
     1.0000   1.0000   1.0000   1.0000   1.0000   1.0000   1.0001   1.0108
     1.0249   1.0073   0.0000   0.0000   0.0000   0.0000   0.0000   0.0000
     0.0000   0.0000   0.0000

          k =-0.7071 0.2357 0.0000 (  2654 PWs)   bands (ev):

   -53.6689 -48.6151 -32.3436 -25.1837 -25.1829 -25.1788 -22.6166 -22.6164
   -22.6090 -10.5470 -10.5290 -10.5219   1.8266   1.8611   1.8751   1.8800
     1.9119   9.4986  12.0662  12.6747  13.6149  14.3451  14.5911  14.9623
    15.0981  15.2377  16.6586  16.7816  16.9503  17.7234  18.1008  18.3645
    18.4875  18.9783  19.3976

     occupation numbers 
     1.0000   1.0000   1.0000   1.0000   1.0000   1.0000   1.0000   1.0000
     1.0000   1.0000   1.0000   1.0000   1.0000   1.0000   1.0000   1.0000
     1.0000   1.0000   1.0000   1.0000   1.0000   1.0000   1.0000   1.0081
     1.0350   1.0788   0.0000   0.0000   0.0000   0.0000   0.0000   0.0000
     0.0000   0.0000   0.0000

          k =-0.7071 0.3536 0.0000 (  2656 PWs)   bands (ev):

   -53.6689 -48.6151 -32.3436 -25.1838 -25.1828 -25.1787 -22.6168 -22.6165
   -22.6088 -10.5402 -10.5359 -10.5224   1.8445   1.8446   1.8751   1.8814
     1.9154   9.5503  12.3266  12.3361  13.4330  14.3183  14.6434  14.9625
    15.0134  15.3611  16.6668  16.7821  16.8986  17.7809  18.2015  18.6211
    18.6437  18.7812  19.0994

     occupation numbers 
     1.0000   1.0000   1.0000   1.0000   1.0000   1.0000   1.0000   1.0000
     1.0000   1.0000   1.0000   1.0000   1.0000   1.0000   1.0000   1.0000
     1.0000   1.0000   1.0000   1.0000   1.0000   1.0000   1.0000   1.0081
     1.0151   1.0543   0.0000   0.0000   0.0000   0.0000   0.0000   0.0000
     0.0000   0.0000   0.0000

     the Fermi energy is    15.6625 ev

!    total energy              =    -563.89384052 Ry
     estimated scf accuracy    <          1.7E-10 Ry
     smearing contrib. (-TS)   =       0.00485237 Ry
     internal energy E=F+TS    =    -563.89869289 Ry

     The total energy is F=E-TS. E is the sum of the following terms:
     one-electron contribution =    -166.60427484 Ry
     hartree contribution      =     115.86391019 Ry
     xc contribution           =    -106.97694595 Ry
     ewald contribution        =    -406.18138230 Ry

     total magnetization       =     0.08 Bohr mag/cell
     absolute magnetization    =     6.23 Bohr mag/cell

     convergence has been achieved in  71 iterations

     negative rho (up, down):  3.315E-02 3.406E-02

     Forces acting on atoms (cartesian axes, Ry/au):

     atom    1 type  4   force =    -0.00000000   -0.00000000    0.00000000
     atom    2 type  3   force =     0.00000000    0.00000000    0.00000000
     atom    3 type  1   force =     0.00000000    0.00000000    0.00000000
     atom    4 type  2   force =    -0.00000000   -0.00000000   -0.00000000
     The non-local contrib.  to forces
     atom    1 type  4   force =     0.00000000   -0.00000000   -0.00000000
     atom    2 type  3   force =    -0.00000000   -0.00000000    0.00000000
     atom    3 type  1   force =    -0.00000000   -0.00000000    0.00000000
     atom    4 type  2   force =    -0.00000000   -0.00000000   -0.00000000
     The ionic contribution  to forces
     atom    1 type  4   force =     0.00000000   -0.00000000    0.00000000
     atom    2 type  3   force =     0.00000000    0.00000000    0.00000000
     atom    3 type  1   force =     0.00000000    0.00000000    0.00000000
     atom    4 type  2   force =     0.00000000    0.00000000    0.00000000
     The local contribution  to forces
     atom    1 type  4   force =    -0.00000000   -0.00000000   -0.00000000
     atom    2 type  3   force =    -0.00000000   -0.00000000    0.00000000
     atom    3 type  1   force =     0.00000000    0.00000000    0.00000000
     atom    4 type  2   force =    -0.00000000   -0.00000000   -0.00000000
     The core correction contribution to forces
     atom    1 type  4   force =    -0.00000000    0.00000000   -0.00000000
     atom    2 type  3   force =     0.00000000    0.00000000   -0.00000000
     atom    3 type  1   force =    -0.00000000    0.00000000   -0.00000000
     atom    4 type  2   force =    -0.00000000   -0.00000000   -0.00000000
     The Hubbard contrib.    to forces
     atom    1 type  4   force =     0.00000000    0.00000000    0.00000000
     atom    2 type  3   force =     0.00000000    0.00000000    0.00000000
     atom    3 type  1   force =     0.00000000    0.00000000    0.00000000
     atom    4 type  2   force =     0.00000000    0.00000000    0.00000000
     The SCF correction term to forces
     atom    1 type  4   force =    -0.00000000   -0.00000000   -0.00000000
     atom    2 type  3   force =    -0.00000000    0.00000000   -0.00000000
     atom    3 type  1   force =     0.00000000    0.00000000   -0.00000000
     atom    4 type  2   force =     0.00000000    0.00000000   -0.00000000

     Total force =     0.000000     Total SCF correction =     0.000000


     Computing stress (Cartesian axis) and pressure


     negative rho (up, down):  3.315E-02 3.406E-02
          total   stress  (Ry/bohr**3)                   (kbar)     P=       47.35
   0.00032190  -0.00000000  -0.00000000           47.35       -0.00       -0.00
  -0.00000000   0.00032190  -0.00000000           -0.00       47.35       -0.00
  -0.00000000  -0.00000000   0.00032190           -0.00       -0.00       47.35

     kinetic stress (kbar)  29051.14     -0.00     -0.00
                               -0.00  29051.14      0.00
                                0.00      0.00  29051.14

     local   stress (kbar)   2594.99      0.00      0.00
                                0.00   2594.99      0.00
                                0.00      0.00   2594.99

     nonloc. stress (kbar)   8727.68     -0.00      0.00
                               -0.00   8727.68     -0.00
                               -0.00     -0.00   8727.68

     hartree stress (kbar)  12726.61     -0.00      0.00
                               -0.00  12726.61     -0.00
                                0.00     -0.00  12726.61

     exc-cor stress (kbar)   4891.48     -0.00      0.00
                               -0.00   4891.48     -0.00
                                0.00     -0.00   4891.48

     corecor stress (kbar) -13329.17      0.00     -0.00
                                0.00 -13329.17     -0.00
                               -0.00     -0.00 -13329.17

     ewald   stress (kbar) -44615.39     -0.00      0.00
                               -0.00 -44615.39      0.00
                                0.00      0.00 -44615.39

     hubbard stress (kbar)      0.00      0.00      0.00
                                0.00      0.00      0.00
                                0.00      0.00      0.00

     DFT-D   stress (kbar)      0.00      0.00      0.00
                                0.00      0.00      0.00
                                0.00      0.00      0.00

     XDM     stress (kbar)      0.00      0.00      0.00
                                0.00      0.00      0.00
                                0.00      0.00      0.00

     dft-nl  stress (kbar)      0.00      0.00      0.00
                                0.00      0.00      0.00
                                0.00      0.00      0.00

     TS-vdW  stress (kbar)      0.00      0.00      0.00
                                0.00      0.00      0.00
                                0.00      0.00      0.00

     MDB     stress (kbar)      0.00      0.00      0.00
                                0.00      0.00      0.00
                                0.00      0.00      0.00

     3D-RISM stress (kbar)      0.00      0.00      0.00
                                0.00      0.00      0.00
                                0.00      0.00      0.00


     Writing all to output data dir ./out/aiida.save/ :
     XML data file, charge density, pseudopotentials, collected wavefunctions

     init_run     :      1.25s CPU      1.35s WALL (       1 calls)
     electrons    :     68.06s CPU     74.40s WALL (       1 calls)
     forces       :      0.10s CPU      0.11s WALL (       1 calls)
     stress       :      0.56s CPU      0.57s WALL (       1 calls)

     Called by init_run:
     wfcinit      :      0.24s CPU      0.26s WALL (       1 calls)
     wfcinit:atom :      0.00s CPU      0.00s WALL (      21 calls)
     wfcinit:wfcr :      0.21s CPU      0.23s WALL (      21 calls)
     potinit      :      0.34s CPU      0.40s WALL (       1 calls)
     hinit0       :      0.61s CPU      0.62s WALL (       1 calls)

     Called by electrons:
     c_bands      :     57.47s CPU     63.31s WALL (      71 calls)
     sum_band     :      6.80s CPU      7.15s WALL (      71 calls)
     v_of_rho     :      2.06s CPU      2.12s WALL (      72 calls)
     v_h          :      0.04s CPU      0.05s WALL (      72 calls)
     v_xc         :      2.08s CPU      2.13s WALL (      74 calls)
     newd         :      1.02s CPU      1.02s WALL (      72 calls)
     mix_rho      :      0.40s CPU      0.41s WALL (      71 calls)

     Called by c_bands:
     init_us_2    :      0.46s CPU      0.48s WALL (    3045 calls)
     init_us_2:cp :      0.45s CPU      0.47s WALL (    3045 calls)
     ccgdiagg     :     42.06s CPU     46.65s WALL (    1492 calls)
     wfcrot       :     10.82s CPU     11.50s WALL (    1492 calls)

     Called by sum_band:
     sum_band:wei :      0.18s CPU      0.19s WALL (      71 calls)
     sum_band:loo :      4.91s CPU      5.21s WALL (      71 calls)
     sum_band:buf :      0.05s CPU      0.05s WALL (    1491 calls)
     sum_band:ini :      0.22s CPU      0.23s WALL (    1491 calls)
     sum_band:cal :      0.47s CPU      0.50s WALL (    1491 calls)
     sum_band:bec :      0.03s CPU      0.03s WALL (    1491 calls)
     addusdens    :      1.27s CPU      1.28s WALL (      71 calls)
                                        0.00s GPU  (      71 calls)
     addusd:skk   :      0.00s CPU      0.00s WALL (     284 calls)
                                        0.00s GPU  (     284 calls)

     Called by *cgdiagg:
     h_psi        :     37.30s CPU     40.61s WALL (  125489 calls)
     s_psi        :      4.22s CPU      4.70s WALL (  249486 calls)

     Called by h_psi:
     h_psi:calbec :      3.47s CPU      3.86s WALL (  125489 calls)
     vloc_psi     :     27.09s CPU     29.26s WALL (  125489 calls)
     add_vuspsi   :      5.99s CPU      6.42s WALL (  125489 calls)
     hs_1psi      :     31.10s CPU     34.46s WALL (  123997 calls)
     s_1psi       :      4.94s CPU      5.66s WALL (  123997 calls)

     General routines
     calbec       :      6.22s CPU      6.80s WALL (  251082 calls)
     fft          :      1.27s CPU      1.35s WALL (    1838 calls)
     ffts         :      0.38s CPU      0.39s WALL (     286 calls)
     fftw         :     25.68s CPU     27.47s WALL (  404913 calls)
     interpolate  :      0.39s CPU      0.40s WALL (     144 calls)

     Parallel routines

     PWSCF        :   1m10.40s CPU   1m17.27s WALL


   This run was terminated on:   4:56:18  30Nov2023            

=------------------------------------------------------------------------------=
   JOB DONE.
=------------------------------------------------------------------------------=
