
     Program PWSCF v.7.2 starts on 22Oct2023 at 18:44: 1 

     This program is part of the open-source Quantum ESPRESSO suite
     for quantum simulation of materials; please cite
         "P. Giannozzi et al., J. Phys.:Condens. Matter 21 395502 (2009);
         "P. Giannozzi et al., J. Phys.:Condens. Matter 29 465901 (2017);
         "P. Giannozzi et al., J. Chem. Phys. 152 154105 (2020);
          URL http://www.quantum-espresso.org", 
     in publications or presentations arising from this work. More details at
     http://www.quantum-espresso.org/quote

     Parallel version (MPI & OpenMP), running on      12 processor cores
     Number of MPI processes:                 1
     Threads/MPI process:                    12

     MPI processes distributed on     1 nodes
     56693 MiB available memory on the printing compute node when the environment starts
 
     Reading input from aiida.in

     Current dimensions of program PWSCF are:
     Max number of different atomic species (ntypx) = 10
     Max number of k-points (npk) =  40000
     Max angular momentum in pseudopotentials (lmaxx) =  4
     Message from routine setup:
     using ibrav=0 with symmetry is DISCOURAGED, use correct ibrav instead
 
     Subspace diagonalization in iterative solution of the eigenvalue problem:
     a serial algorithm will be used

 
     G-vector sticks info
     --------------------
     sticks:   dense  smooth     PW     G-vecs:    dense   smooth      PW
     Sum        4219    2107    595               334953   118403   17471
 
     Using Slab Decomposition
 


     bravais-lattice index     =            0
     lattice parameter (alat)  =      13.4171  a.u.
     unit-cell volume          =    3467.1451 (a.u.)^3
     number of atoms/cell      =           12
     number of atomic types    =            3
     number of electrons       =       140.00
     number of Kohn-Sham states=           84
     kinetic-energy cutoff     =      40.0000  Ry
     charge density cutoff     =     320.0000  Ry
     scf convergence threshold =      2.4E-09
     mixing beta               =       0.4000
     number of iterations used =            8  plain     mixing
     Exchange-correlation= PBESOL
                           (   1   4  10   8   0   0   0)

     GPU acceleration is ACTIVE.


     GPU used by master process:

        Device Number: 0
        Device name: Tesla P100-PCIE-16GB
        Compute capability : 60
        Ratio of single to double precision performance  : 2
        Memory Clock Rate (KHz): 715000
        Memory Bus Width (bits): 4096
        Peak Memory Bandwidth (GB/s): 732.16

     celldm(1)=  13.417055  celldm(2)=   0.000000  celldm(3)=   0.000000
     celldm(4)=   0.000000  celldm(5)=   0.000000  celldm(6)=   0.000000

     crystal axes: (cart. coord. in units of alat)
               a(1) = (   1.000000   0.000000   0.000000 )  
               a(2) = (   0.000000   0.921268   0.000000 )  
               a(3) = (   0.000000   0.000000   1.558169 )  

     reciprocal axes: (cart. coord. in units 2 pi/alat)
               b(1) = (  1.000000  0.000000  0.000000 )  
               b(2) = (  0.000000  1.085461  0.000000 )  
               b(3) = (  0.000000  0.000000  0.641779 )  


     PseudoPot. # 1 for As read from file:
     ./pseudo/As.pbesol-n-rrkjus_psl.0.2.UPF
     MD5 check sum: 1aa86e6aa4f77befd3aa87cac6788838
     Pseudo is Ultrasoft + core correction, Zval =  5.0
     Generated using "atomic" code by A. Dal Corso  v.6.0 svn rev. 13079
     Using radial grid of 1209 points,  4 beta functions with: 
                l(1) =   0
                l(2) =   0
                l(3) =   1
                l(4) =   1
     Q(r) pseudized with 0 coefficients 


     PseudoPot. # 2 for Cr read from file:
     ./pseudo/cr_pbesol_v1.5.uspp.F.UPF
     MD5 check sum: a621641e0be27168676a837af8893d0f
     Pseudo is Ultrasoft + core correction, Zval = 14.0
     Generated by new atomic code, or converted to UPF format
     Using radial grid of  857 points,  6 beta functions with: 
                l(1) =   0
                l(2) =   0
                l(3) =   1
                l(4) =   1
                l(5) =   2
                l(6) =   2
     Q(r) pseudized with  8 coefficients,  rinner =    0.950   0.950   0.950
                                                       0.950   0.950

     PseudoPot. # 3 for Ru read from file:
     ./pseudo/Ru_ONCV_PBEsol-1.0.upf
     MD5 check sum: 8f986bf37b5af91b2f53a4f9afee5fd8
     Pseudo is Norm-conserving, Zval = 16.0
     Generated using ONCVPSP code by D. R. Hamann
     Using radial grid of 1440 points,  6 beta functions with: 
                l(1) =   0
                l(2) =   0
                l(3) =   1
                l(4) =   1
                l(5) =   2
                l(6) =   2

     atomic species   valence    mass     pseudopotential
        As             5.00    74.92160     As( 1.00)
        Cr            14.00    51.99610     Cr( 1.00)
        Ru            16.00   101.07000     Ru( 1.00)

     Starting magnetic structure 
     atomic species   magnetization
        As           0.100
        Cr           0.357
        Ru           0.313

      8 Sym. Ops., with inversion, found ( 6 have fractional translation)


                                    s                        frac. trans.

      isym =  1     identity                                     

 cryst.   s( 1) = (     1          0          0      )
                  (     0          1          0      )
                  (     0          0          1      )

 cart.    s( 1) = (  1.0000000  0.0000000  0.0000000 )
                  (  0.0000000  1.0000000  0.0000000 )
                  (  0.0000000  0.0000000  1.0000000 )


      isym =  2     180 deg rotation - cart. axis [0,0,1]        

 cryst.   s( 2) = (    -1          0          0      )    f =(  0.5000000 )
                  (     0         -1          0      )       ( -0.0000000 )
                  (     0          0          1      )       (  0.5000000 )

 cart.    s( 2) = ( -1.0000000  0.0000000  0.0000000 )    f =(  0.5000000 )
                  (  0.0000000 -1.0000000  0.0000000 )       ( -0.0000000 )
                  (  0.0000000  0.0000000  1.0000000 )       (  0.7790845 )


      isym =  3     180 deg rotation - cart. axis [0,1,0]        

 cryst.   s( 3) = (    -1          0          0      )    f =( -0.0000000 )
                  (     0          1          0      )       (  0.5000000 )
                  (     0          0         -1      )       (  0.0000000 )

 cart.    s( 3) = ( -1.0000000  0.0000000  0.0000000 )    f =( -0.0000000 )
                  (  0.0000000  1.0000000  0.0000000 )       (  0.4606338 )
                  (  0.0000000  0.0000000 -1.0000000 )       (  0.0000000 )


      isym =  4     180 deg rotation - cart. axis [1,0,0]        

 cryst.   s( 4) = (     1          0          0      )    f =(  0.5000000 )
                  (     0         -1          0      )       (  0.5000000 )
                  (     0          0         -1      )       (  0.5000000 )

 cart.    s( 4) = (  1.0000000  0.0000000  0.0000000 )    f =(  0.5000000 )
                  (  0.0000000 -1.0000000  0.0000000 )       (  0.4606338 )
                  (  0.0000000  0.0000000 -1.0000000 )       (  0.7790845 )


      isym =  5     inversion                                    

 cryst.   s( 5) = (    -1          0          0      )
                  (     0         -1          0      )
                  (     0          0         -1      )

 cart.    s( 5) = ( -1.0000000  0.0000000  0.0000000 )
                  (  0.0000000 -1.0000000  0.0000000 )
                  (  0.0000000  0.0000000 -1.0000000 )


      isym =  6     inv. 180 deg rotation - cart. axis [0,0,1]   

 cryst.   s( 6) = (     1          0          0      )    f =(  0.5000000 )
                  (     0          1          0      )       (  0.0000000 )
                  (     0          0         -1      )       (  0.5000000 )

 cart.    s( 6) = (  1.0000000  0.0000000  0.0000000 )    f =(  0.5000000 )
                  (  0.0000000  1.0000000  0.0000000 )       (  0.0000000 )
                  (  0.0000000  0.0000000 -1.0000000 )       (  0.7790845 )


      isym =  7     inv. 180 deg rotation - cart. axis [0,1,0]   

 cryst.   s( 7) = (     1          0          0      )    f =(  0.0000000 )
                  (     0         -1          0      )       (  0.5000000 )
                  (     0          0          1      )       (  0.0000000 )

 cart.    s( 7) = (  1.0000000  0.0000000  0.0000000 )    f =(  0.0000000 )
                  (  0.0000000 -1.0000000  0.0000000 )       (  0.4606338 )
                  (  0.0000000  0.0000000  1.0000000 )       (  0.0000000 )


      isym =  8     inv. 180 deg rotation - cart. axis [1,0,0]   

 cryst.   s( 8) = (    -1          0          0      )    f =(  0.5000000 )
                  (     0          1          0      )       (  0.5000000 )
                  (     0          0          1      )       (  0.5000000 )

 cart.    s( 8) = ( -1.0000000  0.0000000  0.0000000 )    f =(  0.5000000 )
                  (  0.0000000  1.0000000  0.0000000 )       (  0.4606338 )
                  (  0.0000000  0.0000000  1.0000000 )       (  0.7790845 )


   Cartesian axes

     site n.     atom                  positions (alat units)
         1           Cr  tau(   1) = (   0.9788000   0.6909507   1.0600224  )
         2           Cr  tau(   2) = (   0.4788000   0.6909507   1.2772311  )
         3           Cr  tau(   3) = (   0.0212000   0.2303169   0.4981466  )
         4           Cr  tau(   4) = (   0.5212000   0.2303169   0.2809379  )
         5           As  tau(   5) = (   0.7349000   0.6909507   0.5875855  )
         6           As  tau(   6) = (   0.2349000   0.6909507   0.1914990  )
         7           As  tau(   7) = (   0.2651000   0.2303169   0.9705835  )
         8           As  tau(   8) = (   0.7651000   0.2303169   1.3666700  )
         9           Ru  tau(   9) = (   0.8580000   0.6909507   0.0948925  )
        10           Ru  tau(  10) = (   0.3580000   0.6909507   0.6841920  )
        11           Ru  tau(  11) = (   0.1420000   0.2303169   1.4632765  )
        12           Ru  tau(  12) = (   0.6420000   0.2303169   0.8739770  )

   Crystallographic axes

     site n.     atom                  positions (cryst. coord.)
         1           Cr  tau(   1) = (  0.9788000  0.7500000  0.6803000  )
         2           Cr  tau(   2) = (  0.4788000  0.7500000  0.8197000  )
         3           Cr  tau(   3) = (  0.0212000  0.2500000  0.3197000  )
         4           Cr  tau(   4) = (  0.5212000  0.2500000  0.1803000  )
         5           As  tau(   5) = (  0.7349000  0.7500000  0.3771000  )
         6           As  tau(   6) = (  0.2349000  0.7500000  0.1229000  )
         7           As  tau(   7) = (  0.2651000  0.2500000  0.6229000  )
         8           As  tau(   8) = (  0.7651000  0.2500000  0.8771000  )
         9           Ru  tau(   9) = (  0.8580000  0.7500000  0.0609000  )
        10           Ru  tau(  10) = (  0.3580000  0.7500000  0.4391000  )
        11           Ru  tau(  11) = (  0.1420000  0.2500000  0.9391000  )
        12           Ru  tau(  12) = (  0.6420000  0.2500000  0.5609000  )

     number of k points=    48  Marzari-Vanderbilt smearing, width (Ry)=  0.0100
                       cart. coord. in units 2pi/alat
        k(    1) = (   0.0000000   0.0000000   0.0000000), wk =   0.0059524
        k(    2) = (   0.0000000   0.0000000   0.1604447), wk =   0.0119048
        k(    3) = (   0.0000000   0.0000000  -0.3208895), wk =   0.0059524
        k(    4) = (   0.0000000   0.1550658   0.0000000), wk =   0.0119048
        k(    5) = (   0.0000000   0.1550658   0.1604447), wk =   0.0238095
        k(    6) = (   0.0000000   0.1550658  -0.3208895), wk =   0.0119048
        k(    7) = (   0.0000000   0.3101317   0.0000000), wk =   0.0119048
        k(    8) = (   0.0000000   0.3101317   0.1604447), wk =   0.0238095
        k(    9) = (   0.0000000   0.3101317  -0.3208895), wk =   0.0119048
        k(   10) = (   0.0000000   0.4651975   0.0000000), wk =   0.0119048
        k(   11) = (   0.0000000   0.4651975   0.1604447), wk =   0.0238095
        k(   12) = (   0.0000000   0.4651975  -0.3208895), wk =   0.0119048
        k(   13) = (   0.1666667   0.0000000   0.0000000), wk =   0.0119048
        k(   14) = (   0.1666667   0.0000000   0.1604447), wk =   0.0238095
        k(   15) = (   0.1666667   0.0000000  -0.3208895), wk =   0.0119048
        k(   16) = (   0.1666667   0.1550658   0.0000000), wk =   0.0238095
        k(   17) = (   0.1666667   0.1550658   0.1604447), wk =   0.0476190
        k(   18) = (   0.1666667   0.1550658  -0.3208895), wk =   0.0238095
        k(   19) = (   0.1666667   0.3101317   0.0000000), wk =   0.0238095
        k(   20) = (   0.1666667   0.3101317   0.1604447), wk =   0.0476190
        k(   21) = (   0.1666667   0.3101317  -0.3208895), wk =   0.0238095
        k(   22) = (   0.1666667   0.4651975   0.0000000), wk =   0.0238095
        k(   23) = (   0.1666667   0.4651975   0.1604447), wk =   0.0476190
        k(   24) = (   0.1666667   0.4651975  -0.3208895), wk =   0.0238095
        k(   25) = (   0.3333333   0.0000000   0.0000000), wk =   0.0119048
        k(   26) = (   0.3333333   0.0000000   0.1604447), wk =   0.0238095
        k(   27) = (   0.3333333   0.0000000  -0.3208895), wk =   0.0119048
        k(   28) = (   0.3333333   0.1550658   0.0000000), wk =   0.0238095
        k(   29) = (   0.3333333   0.1550658   0.1604447), wk =   0.0476190
        k(   30) = (   0.3333333   0.1550658  -0.3208895), wk =   0.0238095
        k(   31) = (   0.3333333   0.3101317   0.0000000), wk =   0.0238095
        k(   32) = (   0.3333333   0.3101317   0.1604447), wk =   0.0476190
        k(   33) = (   0.3333333   0.3101317  -0.3208895), wk =   0.0238095
        k(   34) = (   0.3333333   0.4651975   0.0000000), wk =   0.0238095
        k(   35) = (   0.3333333   0.4651975   0.1604447), wk =   0.0476190
        k(   36) = (   0.3333333   0.4651975  -0.3208895), wk =   0.0238095
        k(   37) = (  -0.5000000   0.0000000   0.0000000), wk =   0.0059524
        k(   38) = (  -0.5000000   0.0000000   0.1604447), wk =   0.0119048
        k(   39) = (  -0.5000000   0.0000000  -0.3208895), wk =   0.0059524
        k(   40) = (  -0.5000000   0.1550658   0.0000000), wk =   0.0119048
        k(   41) = (  -0.5000000   0.1550658   0.1604447), wk =   0.0238095
        k(   42) = (  -0.5000000   0.1550658  -0.3208895), wk =   0.0119048
        k(   43) = (  -0.5000000   0.3101317   0.0000000), wk =   0.0119048
        k(   44) = (  -0.5000000   0.3101317   0.1604447), wk =   0.0238095
        k(   45) = (  -0.5000000   0.3101317  -0.3208895), wk =   0.0119048
        k(   46) = (  -0.5000000   0.4651975   0.0000000), wk =   0.0119048
        k(   47) = (  -0.5000000   0.4651975   0.1604447), wk =   0.0238095
        k(   48) = (  -0.5000000   0.4651975  -0.3208895), wk =   0.0119048

                       cryst. coord.
        k(    1) = (   0.0000000   0.0000000   0.0000000), wk =   0.0059524
        k(    2) = (   0.0000000   0.0000000   0.2500000), wk =   0.0119048
        k(    3) = (   0.0000000   0.0000000  -0.5000000), wk =   0.0059524
        k(    4) = (   0.0000000   0.1428571   0.0000000), wk =   0.0119048
        k(    5) = (   0.0000000   0.1428571   0.2500000), wk =   0.0238095
        k(    6) = (   0.0000000   0.1428571  -0.5000000), wk =   0.0119048
        k(    7) = (   0.0000000   0.2857143   0.0000000), wk =   0.0119048
        k(    8) = (   0.0000000   0.2857143   0.2500000), wk =   0.0238095
        k(    9) = (   0.0000000   0.2857143  -0.5000000), wk =   0.0119048
        k(   10) = (   0.0000000   0.4285714   0.0000000), wk =   0.0119048
        k(   11) = (   0.0000000   0.4285714   0.2500000), wk =   0.0238095
        k(   12) = (   0.0000000   0.4285714  -0.5000000), wk =   0.0119048
        k(   13) = (   0.1666667   0.0000000   0.0000000), wk =   0.0119048
        k(   14) = (   0.1666667   0.0000000   0.2500000), wk =   0.0238095
        k(   15) = (   0.1666667   0.0000000  -0.5000000), wk =   0.0119048
        k(   16) = (   0.1666667   0.1428571   0.0000000), wk =   0.0238095
        k(   17) = (   0.1666667   0.1428571   0.2500000), wk =   0.0476190
        k(   18) = (   0.1666667   0.1428571  -0.5000000), wk =   0.0238095
        k(   19) = (   0.1666667   0.2857143   0.0000000), wk =   0.0238095
        k(   20) = (   0.1666667   0.2857143   0.2500000), wk =   0.0476190
        k(   21) = (   0.1666667   0.2857143  -0.5000000), wk =   0.0238095
        k(   22) = (   0.1666667   0.4285714   0.0000000), wk =   0.0238095
        k(   23) = (   0.1666667   0.4285714   0.2500000), wk =   0.0476190
        k(   24) = (   0.1666667   0.4285714  -0.5000000), wk =   0.0238095
        k(   25) = (   0.3333333   0.0000000   0.0000000), wk =   0.0119048
        k(   26) = (   0.3333333   0.0000000   0.2500000), wk =   0.0238095
        k(   27) = (   0.3333333   0.0000000  -0.5000000), wk =   0.0119048
        k(   28) = (   0.3333333   0.1428571   0.0000000), wk =   0.0238095
        k(   29) = (   0.3333333   0.1428571   0.2500000), wk =   0.0476190
        k(   30) = (   0.3333333   0.1428571  -0.5000000), wk =   0.0238095
        k(   31) = (   0.3333333   0.2857143   0.0000000), wk =   0.0238095
        k(   32) = (   0.3333333   0.2857143   0.2500000), wk =   0.0476190
        k(   33) = (   0.3333333   0.2857143  -0.5000000), wk =   0.0238095
        k(   34) = (   0.3333333   0.4285714   0.0000000), wk =   0.0238095
        k(   35) = (   0.3333333   0.4285714   0.2500000), wk =   0.0476190
        k(   36) = (   0.3333333   0.4285714  -0.5000000), wk =   0.0238095
        k(   37) = (  -0.5000000   0.0000000   0.0000000), wk =   0.0059524
        k(   38) = (  -0.5000000   0.0000000   0.2500000), wk =   0.0119048
        k(   39) = (  -0.5000000   0.0000000  -0.5000000), wk =   0.0059524
        k(   40) = (  -0.5000000   0.1428571   0.0000000), wk =   0.0119048
        k(   41) = (  -0.5000000   0.1428571   0.2500000), wk =   0.0238095
        k(   42) = (  -0.5000000   0.1428571  -0.5000000), wk =   0.0119048
        k(   43) = (  -0.5000000   0.2857143   0.0000000), wk =   0.0119048
        k(   44) = (  -0.5000000   0.2857143   0.2500000), wk =   0.0238095
        k(   45) = (  -0.5000000   0.2857143  -0.5000000), wk =   0.0119048
        k(   46) = (  -0.5000000   0.4285714   0.0000000), wk =   0.0119048
        k(   47) = (  -0.5000000   0.4285714   0.2500000), wk =   0.0238095
        k(   48) = (  -0.5000000   0.4285714  -0.5000000), wk =   0.0119048

     Dense  grid:   334953 G-vectors     FFT dimensions: (  80,  72, 120)

     Smooth grid:   118403 G-vectors     FFT dimensions: (  60,  50,  90)

     Dynamical RAM for                 wfc:      18.99 MB

     Dynamical RAM for     wfc (w. buffer):    1841.56 MB

     Dynamical RAM for           str. fact:      15.33 MB

     Dynamical RAM for           local pot:       0.00 MB

     Dynamical RAM for          nlocal pot:      39.78 MB

     Dynamical RAM for                qrad:       4.31 MB

     Dynamical RAM for          rho,v,vnew:      62.31 MB

     Dynamical RAM for               rhoin:      20.77 MB

     Dynamical RAM for            rho*nmix:     163.55 MB

     Dynamical RAM for           G-vectors:      20.07 MB

     Dynamical RAM for          h,s,v(r/c):       1.29 MB

     Dynamical RAM for          <psi|beta>:       0.23 MB

     Dynamical RAM for                 psi:      37.97 MB

     Dynamical RAM for                hpsi:      37.97 MB

     Dynamical RAM for                spsi:      37.97 MB

     Dynamical RAM for      wfcinit/wfcrot:      43.61 MB

     Dynamical RAM for           addusdens:     976.20 MB

     Dynamical RAM for          addusforce:    1006.89 MB

     Dynamical RAM for         addusstress:    1034.97 MB

     Estimated static dynamical RAM per process >       2.01 GB

     Estimated max dynamical RAM per process >       3.18 GB

     Check: negative core charge=   -0.000002
     Generating pointlists ...
     new r_m :   0.1605 (alat units)  2.1534 (a.u.) for type    1
     new r_m :   0.2193 (alat units)  2.9426 (a.u.) for type    2
     new r_m :   0.1605 (alat units)  2.1534 (a.u.) for type    3

     Initial potential from superposition of free atoms

     starting charge     135.9971, renormalised to     140.0000

     negative rho (up, down):  1.882E-03 8.913E-04
     Starting wfcs are   96 randomized atomic wfcs

     total cpu time spent up to now is       10.3 secs

     Self-consistent Calculation
[tb_dev] Currently allocated     6.24E+00 Mbytes, locked:    0 /  10
[tb_pin] Currently allocated     0.00E+00 Mbytes, locked:    0 /   0

     iteration #  1     ecut=    40.00 Ry     beta= 0.40
     Davidson diagonalization with overlap

---- Real-time Memory Report at c_bands before calling an iterative solver
          2872 MiB given to the printing process from OS
         -1432 MiB allocation reported by mallinfo(arena+hblkhd)
         53327 MiB available memory on the node where the printing process lives
     GPU memory used/free/total (MiB): 1616 / 14664 / 16280
------------------
     ethr =  1.00E-02,  avg # of iterations =  2.5

     negative rho (up, down):  0.000E+00 2.194E-03

     total cpu time spent up to now is       20.8 secs

     total energy              =   -1511.33553287 Ry
     estimated scf accuracy    <      26.50279408 Ry

     total magnetization       =    28.00 Bohr mag/cell
     absolute magnetization    =    30.20 Bohr mag/cell
[tb_dev] Currently allocated     6.24E+00 Mbytes, locked:    0 /   8
[tb_pin] Currently allocated     0.00E+00 Mbytes, locked:    0 /   0

     iteration #  2     ecut=    40.00 Ry     beta= 0.40
     Davidson diagonalization with overlap

---- Real-time Memory Report at c_bands before calling an iterative solver
          2973 MiB given to the printing process from OS
         -1359 MiB allocation reported by mallinfo(arena+hblkhd)
         53251 MiB available memory on the node where the printing process lives
     GPU memory used/free/total (MiB): 3186 / 13094 / 16280
------------------
     ethr =  1.00E-02,  avg # of iterations =  6.1

     negative rho (up, down):  0.000E+00 3.714E-03

     total cpu time spent up to now is       37.2 secs

     total energy              =   -1524.33974827 Ry
     estimated scf accuracy    <     121.82561528 Ry

     total magnetization       =     2.75 Bohr mag/cell
     absolute magnetization    =     3.08 Bohr mag/cell
[tb_dev] Currently allocated     6.24E+00 Mbytes, locked:    0 /   8
[tb_pin] Currently allocated     0.00E+00 Mbytes, locked:    0 /   0

     iteration #  3     ecut=    40.00 Ry     beta= 0.40
     Davidson diagonalization with overlap

---- Real-time Memory Report at c_bands before calling an iterative solver
          2984 MiB given to the printing process from OS
         -1348 MiB allocation reported by mallinfo(arena+hblkhd)
         53242 MiB available memory on the node where the printing process lives
     GPU memory used/free/total (MiB): 3186 / 13094 / 16280
------------------
     ethr =  1.00E-02,  avg # of iterations =  2.0

     negative rho (up, down):  0.000E+00 2.974E-03

     total cpu time spent up to now is       47.4 secs

     total energy              =   -1531.30088644 Ry
     estimated scf accuracy    <      64.83378657 Ry

     total magnetization       =     2.85 Bohr mag/cell
     absolute magnetization    =     2.91 Bohr mag/cell
[tb_dev] Currently allocated     6.24E+00 Mbytes, locked:    0 /   8
[tb_pin] Currently allocated     0.00E+00 Mbytes, locked:    0 /   0

     iteration #  4     ecut=    40.00 Ry     beta= 0.40
     Davidson diagonalization with overlap

---- Real-time Memory Report at c_bands before calling an iterative solver
          2991 MiB given to the printing process from OS
         -1341 MiB allocation reported by mallinfo(arena+hblkhd)
         53235 MiB available memory on the node where the printing process lives
     GPU memory used/free/total (MiB): 3186 / 13094 / 16280
------------------
     ethr =  1.00E-02,  avg # of iterations =  1.0

     negative rho (up, down):  0.000E+00 5.085E-03

     total cpu time spent up to now is       56.0 secs

     total energy              =   -1520.94878171 Ry
     estimated scf accuracy    <      76.54823578 Ry

     total magnetization       =     2.67 Bohr mag/cell
     absolute magnetization    =     2.79 Bohr mag/cell
[tb_dev] Currently allocated     6.24E+00 Mbytes, locked:    0 /   8
[tb_pin] Currently allocated     0.00E+00 Mbytes, locked:    0 /   0

     iteration #  5     ecut=    40.00 Ry     beta= 0.40
     Davidson diagonalization with overlap

---- Real-time Memory Report at c_bands before calling an iterative solver
          2995 MiB given to the printing process from OS
         -1337 MiB allocation reported by mallinfo(arena+hblkhd)
         53231 MiB available memory on the node where the printing process lives
     GPU memory used/free/total (MiB): 3186 / 13094 / 16280
------------------
     ethr =  1.00E-02,  avg # of iterations =  4.5

     negative rho (up, down):  0.000E+00 6.485E-03

     total cpu time spent up to now is       68.7 secs

     total energy              =   -1524.12975111 Ry
     estimated scf accuracy    <       5.57201465 Ry

     total magnetization       =    22.28 Bohr mag/cell
     absolute magnetization    =    23.54 Bohr mag/cell
[tb_dev] Currently allocated     6.24E+00 Mbytes, locked:    0 /   8
[tb_pin] Currently allocated     0.00E+00 Mbytes, locked:    0 /   0

     iteration #  6     ecut=    40.00 Ry     beta= 0.40
     Davidson diagonalization with overlap

---- Real-time Memory Report at c_bands before calling an iterative solver
          3006 MiB given to the printing process from OS
         -1326 MiB allocation reported by mallinfo(arena+hblkhd)
         53221 MiB available memory on the node where the printing process lives
     GPU memory used/free/total (MiB): 3186 / 13094 / 16280
------------------
     ethr =  3.98E-03,  avg # of iterations =  5.4

     negative rho (up, down):  0.000E+00 9.230E-03

     total cpu time spent up to now is       81.8 secs

     total energy              =   -1525.08728314 Ry
     estimated scf accuracy    <       8.14896467 Ry

     total magnetization       =    27.63 Bohr mag/cell
     absolute magnetization    =    30.80 Bohr mag/cell
[tb_dev] Currently allocated     6.24E+00 Mbytes, locked:    0 /   8
[tb_pin] Currently allocated     0.00E+00 Mbytes, locked:    0 /   0

     iteration #  7     ecut=    40.00 Ry     beta= 0.40
     Davidson diagonalization with overlap

---- Real-time Memory Report at c_bands before calling an iterative solver
          3013 MiB given to the printing process from OS
         -1319 MiB allocation reported by mallinfo(arena+hblkhd)
         53214 MiB available memory on the node where the printing process lives
     GPU memory used/free/total (MiB): 3186 / 13094 / 16280
------------------
     ethr =  3.98E-03,  avg # of iterations =  1.4

     negative rho (up, down):  0.000E+00 1.065E-02

     total cpu time spent up to now is       90.7 secs

     total energy              =   -1525.13616246 Ry
     estimated scf accuracy    <       4.17298925 Ry

     total magnetization       =    27.27 Bohr mag/cell
     absolute magnetization    =    29.98 Bohr mag/cell
[tb_dev] Currently allocated     6.24E+00 Mbytes, locked:    0 /   8
[tb_pin] Currently allocated     0.00E+00 Mbytes, locked:    0 /   0

     iteration #  8     ecut=    40.00 Ry     beta= 0.40
     Davidson diagonalization with overlap

---- Real-time Memory Report at c_bands before calling an iterative solver
          3017 MiB given to the printing process from OS
         -1315 MiB allocation reported by mallinfo(arena+hblkhd)
         53212 MiB available memory on the node where the printing process lives
     GPU memory used/free/total (MiB): 3186 / 13094 / 16280
------------------
     ethr =  2.98E-03,  avg # of iterations =  1.6

     negative rho (up, down):  0.000E+00 1.047E-02

     total cpu time spent up to now is       99.6 secs

     total energy              =   -1524.88264492 Ry
     estimated scf accuracy    <       3.47749198 Ry

     total magnetization       =    25.60 Bohr mag/cell
     absolute magnetization    =    28.57 Bohr mag/cell
[tb_dev] Currently allocated     6.24E+00 Mbytes, locked:    0 /   8
[tb_pin] Currently allocated     0.00E+00 Mbytes, locked:    0 /   0

     iteration #  9     ecut=    40.00 Ry     beta= 0.40
     Davidson diagonalization with overlap

---- Real-time Memory Report at c_bands before calling an iterative solver
          3031 MiB given to the printing process from OS
         -1301 MiB allocation reported by mallinfo(arena+hblkhd)
         53197 MiB available memory on the node where the printing process lives
     GPU memory used/free/total (MiB): 3186 / 13094 / 16280
------------------
     ethr =  2.48E-03,  avg # of iterations =  1.1

     negative rho (up, down):  0.000E+00 1.072E-02

     total cpu time spent up to now is      108.2 secs

     total energy              =   -1525.10283764 Ry
     estimated scf accuracy    <       0.72223494 Ry

     total magnetization       =    24.96 Bohr mag/cell
     absolute magnetization    =    27.94 Bohr mag/cell
[tb_dev] Currently allocated     6.24E+00 Mbytes, locked:    0 /   8
[tb_pin] Currently allocated     0.00E+00 Mbytes, locked:    0 /   0

     iteration # 10     ecut=    40.00 Ry     beta= 0.40
     Davidson diagonalization with overlap

---- Real-time Memory Report at c_bands before calling an iterative solver
          3035 MiB given to the printing process from OS
         -1297 MiB allocation reported by mallinfo(arena+hblkhd)
         53192 MiB available memory on the node where the printing process lives
     GPU memory used/free/total (MiB): 3186 / 13094 / 16280
------------------
     ethr =  5.16E-04,  avg # of iterations =  3.9

     negative rho (up, down):  0.000E+00 1.061E-02

     total cpu time spent up to now is      119.6 secs

     total energy              =   -1525.20361167 Ry
     estimated scf accuracy    <       1.32787003 Ry

     total magnetization       =    24.03 Bohr mag/cell
     absolute magnetization    =    27.21 Bohr mag/cell
[tb_dev] Currently allocated     6.24E+00 Mbytes, locked:    0 /   8
[tb_pin] Currently allocated     0.00E+00 Mbytes, locked:    0 /   0

     iteration # 11     ecut=    40.00 Ry     beta= 0.40
     Davidson diagonalization with overlap

---- Real-time Memory Report at c_bands before calling an iterative solver
          3035 MiB given to the printing process from OS
         -1297 MiB allocation reported by mallinfo(arena+hblkhd)
         53194 MiB available memory on the node where the printing process lives
     GPU memory used/free/total (MiB): 3186 / 13094 / 16280
------------------
     ethr =  5.16E-04,  avg # of iterations =  1.5

     negative rho (up, down):  0.000E+00 1.071E-02

     total cpu time spent up to now is      128.5 secs

     total energy              =   -1525.29686090 Ry
     estimated scf accuracy    <       2.36870717 Ry

     total magnetization       =    22.37 Bohr mag/cell
     absolute magnetization    =    25.59 Bohr mag/cell
[tb_dev] Currently allocated     6.24E+00 Mbytes, locked:    0 /   8
[tb_pin] Currently allocated     0.00E+00 Mbytes, locked:    0 /   0

     iteration # 12     ecut=    40.00 Ry     beta= 0.40
     Davidson diagonalization with overlap

---- Real-time Memory Report at c_bands before calling an iterative solver
          3035 MiB given to the printing process from OS
         -1297 MiB allocation reported by mallinfo(arena+hblkhd)
         53194 MiB available memory on the node where the printing process lives
     GPU memory used/free/total (MiB): 3186 / 13094 / 16280
------------------
     ethr =  5.16E-04,  avg # of iterations =  2.6

     negative rho (up, down):  0.000E+00 1.063E-02

     total cpu time spent up to now is      138.3 secs

     total energy              =   -1525.01262306 Ry
     estimated scf accuracy    <       9.23223311 Ry

     total magnetization       =    16.04 Bohr mag/cell
     absolute magnetization    =    19.18 Bohr mag/cell
[tb_dev] Currently allocated     6.24E+00 Mbytes, locked:    0 /   8
[tb_pin] Currently allocated     0.00E+00 Mbytes, locked:    0 /   0

     iteration # 13     ecut=    40.00 Ry     beta= 0.40
     Davidson diagonalization with overlap

---- Real-time Memory Report at c_bands before calling an iterative solver
          3038 MiB given to the printing process from OS
         -1297 MiB allocation reported by mallinfo(arena+hblkhd)
         53193 MiB available memory on the node where the printing process lives
     GPU memory used/free/total (MiB): 3186 / 13094 / 16280
------------------
     ethr =  5.16E-04,  avg # of iterations =  1.9

     negative rho (up, down):  0.000E+00 1.173E-02

     total cpu time spent up to now is      147.7 secs

     total energy              =   -1525.11760045 Ry
     estimated scf accuracy    <       1.61376450 Ry

     total magnetization       =    24.24 Bohr mag/cell
     absolute magnetization    =    27.03 Bohr mag/cell
[tb_dev] Currently allocated     6.24E+00 Mbytes, locked:    0 /   8
[tb_pin] Currently allocated     0.00E+00 Mbytes, locked:    0 /   0

     iteration # 14     ecut=    40.00 Ry     beta= 0.40
     Davidson diagonalization with overlap

---- Real-time Memory Report at c_bands before calling an iterative solver
          3039 MiB given to the printing process from OS
         -1297 MiB allocation reported by mallinfo(arena+hblkhd)
         53193 MiB available memory on the node where the printing process lives
     GPU memory used/free/total (MiB): 3186 / 13094 / 16280
------------------
     ethr =  5.16E-04,  avg # of iterations =  1.8

     negative rho (up, down):  0.000E+00 1.288E-02

     total cpu time spent up to now is      156.9 secs

     total energy              =   -1525.21652145 Ry
     estimated scf accuracy    <       0.25771931 Ry

     total magnetization       =    26.74 Bohr mag/cell
     absolute magnetization    =    29.70 Bohr mag/cell
[tb_dev] Currently allocated     6.24E+00 Mbytes, locked:    0 /   8
[tb_pin] Currently allocated     0.00E+00 Mbytes, locked:    0 /   0

     iteration # 15     ecut=    40.00 Ry     beta= 0.40
     Davidson diagonalization with overlap

---- Real-time Memory Report at c_bands before calling an iterative solver
          3039 MiB given to the printing process from OS
         -1297 MiB allocation reported by mallinfo(arena+hblkhd)
         53194 MiB available memory on the node where the printing process lives
     GPU memory used/free/total (MiB): 3186 / 13094 / 16280
------------------
     ethr =  1.84E-04,  avg # of iterations =  4.1

     negative rho (up, down):  0.000E+00 1.413E-02

     total cpu time spent up to now is      168.0 secs

     total energy              =   -1525.27473922 Ry
     estimated scf accuracy    <       0.13755314 Ry

     total magnetization       =    27.22 Bohr mag/cell
     absolute magnetization    =    30.30 Bohr mag/cell
[tb_dev] Currently allocated     6.24E+00 Mbytes, locked:    0 /   8
[tb_pin] Currently allocated     0.00E+00 Mbytes, locked:    0 /   0

     iteration # 16     ecut=    40.00 Ry     beta= 0.40
     Davidson diagonalization with overlap

---- Real-time Memory Report at c_bands before calling an iterative solver
          3039 MiB given to the printing process from OS
         -1297 MiB allocation reported by mallinfo(arena+hblkhd)
         53195 MiB available memory on the node where the printing process lives
     GPU memory used/free/total (MiB): 3186 / 13094 / 16280
------------------
     c_bands:  1 eigenvalues not converged
     ethr =  9.83E-05,  avg # of iterations =  7.8

     negative rho (up, down):  0.000E+00 1.443E-02

     total cpu time spent up to now is      183.1 secs

     total energy              =   -1525.28126165 Ry
     estimated scf accuracy    <       0.16215297 Ry

     total magnetization       =    27.20 Bohr mag/cell
     absolute magnetization    =    30.35 Bohr mag/cell
[tb_dev] Currently allocated     6.24E+00 Mbytes, locked:    0 /   8
[tb_pin] Currently allocated     0.00E+00 Mbytes, locked:    0 /   0

     iteration # 17     ecut=    40.00 Ry     beta= 0.40
     Davidson diagonalization with overlap

---- Real-time Memory Report at c_bands before calling an iterative solver
          3039 MiB given to the printing process from OS
         -1297 MiB allocation reported by mallinfo(arena+hblkhd)
         53192 MiB available memory on the node where the printing process lives
     GPU memory used/free/total (MiB): 3186 / 13094 / 16280
------------------
     ethr =  9.83E-05,  avg # of iterations =  3.2

     negative rho (up, down):  0.000E+00 2.111E-02

     total cpu time spent up to now is      193.6 secs

     total energy              =   -1525.32298662 Ry
     estimated scf accuracy    <       0.05613141 Ry

     total magnetization       =    27.66 Bohr mag/cell
     absolute magnetization    =    30.84 Bohr mag/cell
[tb_dev] Currently allocated     6.24E+00 Mbytes, locked:    0 /   8
[tb_pin] Currently allocated     0.00E+00 Mbytes, locked:    0 /   0

     iteration # 18     ecut=    40.00 Ry     beta= 0.40
     Davidson diagonalization with overlap

---- Real-time Memory Report at c_bands before calling an iterative solver
          3039 MiB given to the printing process from OS
         -1297 MiB allocation reported by mallinfo(arena+hblkhd)
         53193 MiB available memory on the node where the printing process lives
     GPU memory used/free/total (MiB): 3186 / 13094 / 16280
------------------
     c_bands:  2 eigenvalues not converged
     c_bands:  2 eigenvalues not converged
     c_bands:  1 eigenvalues not converged
     ethr =  4.01E-05,  avg # of iterations = 10.0

     negative rho (up, down):  0.000E+00 2.052E-02

     total cpu time spent up to now is      212.9 secs

     total energy              =   -1525.37742780 Ry
     estimated scf accuracy    <       0.06379208 Ry

     total magnetization       =    27.88 Bohr mag/cell
     absolute magnetization    =    32.09 Bohr mag/cell
[tb_dev] Currently allocated     6.24E+00 Mbytes, locked:    0 /   8
[tb_pin] Currently allocated     0.00E+00 Mbytes, locked:    0 /   0

     iteration # 19     ecut=    40.00 Ry     beta= 0.40
     Davidson diagonalization with overlap

---- Real-time Memory Report at c_bands before calling an iterative solver
          3039 MiB given to the printing process from OS
         -1297 MiB allocation reported by mallinfo(arena+hblkhd)
         53193 MiB available memory on the node where the printing process lives
     GPU memory used/free/total (MiB): 3186 / 13094 / 16280
------------------
     ethr =  4.01E-05,  avg # of iterations =  1.3

     negative rho (up, down):  0.000E+00 2.060E-02

     total cpu time spent up to now is      221.7 secs

     total energy              =   -1525.38172285 Ry
     estimated scf accuracy    <       0.08164780 Ry

     total magnetization       =    28.04 Bohr mag/cell
     absolute magnetization    =    32.34 Bohr mag/cell
[tb_dev] Currently allocated     6.24E+00 Mbytes, locked:    0 /   8
[tb_pin] Currently allocated     0.00E+00 Mbytes, locked:    0 /   0

     iteration # 20     ecut=    40.00 Ry     beta= 0.40
     Davidson diagonalization with overlap

---- Real-time Memory Report at c_bands before calling an iterative solver
          3042 MiB given to the printing process from OS
         -1297 MiB allocation reported by mallinfo(arena+hblkhd)
         53193 MiB available memory on the node where the printing process lives
     GPU memory used/free/total (MiB): 3186 / 13094 / 16280
------------------
     ethr =  4.01E-05,  avg # of iterations =  1.0

     negative rho (up, down):  0.000E+00 2.072E-02

     total cpu time spent up to now is      230.2 secs

     total energy              =   -1525.38105556 Ry
     estimated scf accuracy    <       0.09558304 Ry

     total magnetization       =    28.05 Bohr mag/cell
     absolute magnetization    =    32.53 Bohr mag/cell
[tb_dev] Currently allocated     6.24E+00 Mbytes, locked:    0 /   8
[tb_pin] Currently allocated     0.00E+00 Mbytes, locked:    0 /   0

     iteration # 21     ecut=    40.00 Ry     beta= 0.40
     Davidson diagonalization with overlap

---- Real-time Memory Report at c_bands before calling an iterative solver
          3042 MiB given to the printing process from OS
         -1297 MiB allocation reported by mallinfo(arena+hblkhd)
         53194 MiB available memory on the node where the printing process lives
     GPU memory used/free/total (MiB): 3186 / 13094 / 16280
------------------
     ethr =  4.01E-05,  avg # of iterations =  1.0

     negative rho (up, down):  0.000E+00 2.050E-02

     total cpu time spent up to now is      238.7 secs

     total energy              =   -1525.35704449 Ry
     estimated scf accuracy    <       0.09157269 Ry

     total magnetization       =    28.05 Bohr mag/cell
     absolute magnetization    =    32.52 Bohr mag/cell
[tb_dev] Currently allocated     6.24E+00 Mbytes, locked:    0 /   8
[tb_pin] Currently allocated     0.00E+00 Mbytes, locked:    0 /   0

     iteration # 22     ecut=    40.00 Ry     beta= 0.40
     Davidson diagonalization with overlap

---- Real-time Memory Report at c_bands before calling an iterative solver
          3042 MiB given to the printing process from OS
         -1297 MiB allocation reported by mallinfo(arena+hblkhd)
         53194 MiB available memory on the node where the printing process lives
     GPU memory used/free/total (MiB): 3186 / 13094 / 16280
------------------
     c_bands:  1 eigenvalues not converged
     ethr =  4.01E-05,  avg # of iterations =  7.8

     negative rho (up, down):  0.000E+00 2.038E-02

     total cpu time spent up to now is      254.8 secs

     total energy              =   -1525.37096334 Ry
     estimated scf accuracy    <       0.01713828 Ry

     total magnetization       =    27.89 Bohr mag/cell
     absolute magnetization    =    31.95 Bohr mag/cell
[tb_dev] Currently allocated     6.24E+00 Mbytes, locked:    0 /   8
[tb_pin] Currently allocated     0.00E+00 Mbytes, locked:    0 /   0

     iteration # 23     ecut=    40.00 Ry     beta= 0.40
     Davidson diagonalization with overlap

---- Real-time Memory Report at c_bands before calling an iterative solver
          3042 MiB given to the printing process from OS
         -1297 MiB allocation reported by mallinfo(arena+hblkhd)
         53192 MiB available memory on the node where the printing process lives
     GPU memory used/free/total (MiB): 3186 / 13094 / 16280
------------------
     c_bands:  2 eigenvalues not converged
     ethr =  1.22E-05,  avg # of iterations =  3.8

     negative rho (up, down):  0.000E+00 2.060E-02

     total cpu time spent up to now is      265.6 secs

     total energy              =   -1525.37097407 Ry
     estimated scf accuracy    <       0.00881313 Ry

     total magnetization       =    27.91 Bohr mag/cell
     absolute magnetization    =    31.84 Bohr mag/cell
[tb_dev] Currently allocated     6.24E+00 Mbytes, locked:    0 /   8
[tb_pin] Currently allocated     0.00E+00 Mbytes, locked:    0 /   0

     iteration # 24     ecut=    40.00 Ry     beta= 0.40
     Davidson diagonalization with overlap

---- Real-time Memory Report at c_bands before calling an iterative solver
          3042 MiB given to the printing process from OS
         -1297 MiB allocation reported by mallinfo(arena+hblkhd)
         53191 MiB available memory on the node where the printing process lives
     GPU memory used/free/total (MiB): 3186 / 13094 / 16280
------------------
     c_bands:  2 eigenvalues not converged
     c_bands:  2 eigenvalues not converged
     ethr =  6.30E-06,  avg # of iterations =  7.3

     negative rho (up, down):  0.000E+00 2.064E-02

     total cpu time spent up to now is      280.1 secs

     total energy              =   -1525.37238249 Ry
     estimated scf accuracy    <       0.00063652 Ry

     total magnetization       =    27.97 Bohr mag/cell
     absolute magnetization    =    31.95 Bohr mag/cell
[tb_dev] Currently allocated     6.24E+00 Mbytes, locked:    0 /   8
[tb_pin] Currently allocated     0.00E+00 Mbytes, locked:    0 /   0

     iteration # 25     ecut=    40.00 Ry     beta= 0.40
     Davidson diagonalization with overlap

---- Real-time Memory Report at c_bands before calling an iterative solver
          3042 MiB given to the printing process from OS
         -1297 MiB allocation reported by mallinfo(arena+hblkhd)
         53194 MiB available memory on the node where the printing process lives
     GPU memory used/free/total (MiB): 3186 / 13094 / 16280
------------------
     c_bands:  2 eigenvalues not converged
     c_bands:  2 eigenvalues not converged
     c_bands:  1 eigenvalues not converged
     c_bands:  1 eigenvalues not converged
     c_bands:  1 eigenvalues not converged
     c_bands:  1 eigenvalues not converged
     c_bands:  1 eigenvalues not converged
     c_bands:  2 eigenvalues not converged
     c_bands:  2 eigenvalues not converged
     c_bands:  2 eigenvalues not converged
     c_bands:  1 eigenvalues not converged
     c_bands:  1 eigenvalues not converged
     ethr =  4.55E-07,  avg # of iterations = 10.2

     negative rho (up, down):  0.000E+00 2.069E-02

     total cpu time spent up to now is      299.4 secs

     total energy              =   -1525.37268213 Ry
     estimated scf accuracy    <       0.00078288 Ry

     total magnetization       =    28.01 Bohr mag/cell
     absolute magnetization    =    32.02 Bohr mag/cell
[tb_dev] Currently allocated     6.24E+00 Mbytes, locked:    0 /   8
[tb_pin] Currently allocated     0.00E+00 Mbytes, locked:    0 /   0

     iteration # 26     ecut=    40.00 Ry     beta= 0.40
     Davidson diagonalization with overlap

---- Real-time Memory Report at c_bands before calling an iterative solver
          3042 MiB given to the printing process from OS
         -1297 MiB allocation reported by mallinfo(arena+hblkhd)
         53194 MiB available memory on the node where the printing process lives
     GPU memory used/free/total (MiB): 3186 / 13094 / 16280
------------------
     c_bands:  2 eigenvalues not converged
     c_bands:  1 eigenvalues not converged
     c_bands:  1 eigenvalues not converged
     c_bands:  1 eigenvalues not converged
     c_bands:  2 eigenvalues not converged
     c_bands:  1 eigenvalues not converged
     ethr =  4.55E-07,  avg # of iterations =  5.5

     negative rho (up, down):  0.000E+00 2.074E-02

     total cpu time spent up to now is      313.1 secs

     total energy              =   -1525.37290469 Ry
     estimated scf accuracy    <       0.00057805 Ry

     total magnetization       =    27.98 Bohr mag/cell
     absolute magnetization    =    31.96 Bohr mag/cell
[tb_dev] Currently allocated     6.24E+00 Mbytes, locked:    0 /   8
[tb_pin] Currently allocated     0.00E+00 Mbytes, locked:    0 /   0

     iteration # 27     ecut=    40.00 Ry     beta= 0.40
     Davidson diagonalization with overlap

---- Real-time Memory Report at c_bands before calling an iterative solver
          3042 MiB given to the printing process from OS
         -1297 MiB allocation reported by mallinfo(arena+hblkhd)
         53190 MiB available memory on the node where the printing process lives
     GPU memory used/free/total (MiB): 3186 / 13094 / 16280
------------------
     ethr =  4.13E-07,  avg # of iterations =  4.2

     negative rho (up, down):  0.000E+00 2.074E-02

     total cpu time spent up to now is      325.0 secs

     total energy              =   -1525.37301892 Ry
     estimated scf accuracy    <       0.00005493 Ry

     total magnetization       =    28.00 Bohr mag/cell
     absolute magnetization    =    32.00 Bohr mag/cell
[tb_dev] Currently allocated     6.24E+00 Mbytes, locked:    0 /   8
[tb_pin] Currently allocated     0.00E+00 Mbytes, locked:    0 /   0

     iteration # 28     ecut=    40.00 Ry     beta= 0.40
     Davidson diagonalization with overlap

---- Real-time Memory Report at c_bands before calling an iterative solver
          3042 MiB given to the printing process from OS
         -1297 MiB allocation reported by mallinfo(arena+hblkhd)
         53193 MiB available memory on the node where the printing process lives
     GPU memory used/free/total (MiB): 3186 / 13094 / 16280
------------------
     ethr =  3.92E-08,  avg # of iterations =  6.1

     negative rho (up, down):  0.000E+00 2.073E-02

     total cpu time spent up to now is      340.7 secs

     total energy              =   -1525.37311147 Ry
     estimated scf accuracy    <       0.00009225 Ry

     total magnetization       =    28.00 Bohr mag/cell
     absolute magnetization    =    32.03 Bohr mag/cell
[tb_dev] Currently allocated     6.24E+00 Mbytes, locked:    0 /   8
[tb_pin] Currently allocated     0.00E+00 Mbytes, locked:    0 /   0

     iteration # 29     ecut=    40.00 Ry     beta= 0.40
     Davidson diagonalization with overlap

---- Real-time Memory Report at c_bands before calling an iterative solver
          3042 MiB given to the printing process from OS
         -1297 MiB allocation reported by mallinfo(arena+hblkhd)
         53194 MiB available memory on the node where the printing process lives
     GPU memory used/free/total (MiB): 3186 / 13094 / 16280
------------------
     ethr =  3.92E-08,  avg # of iterations =  4.9

     negative rho (up, down):  0.000E+00 2.076E-02

     total cpu time spent up to now is      355.0 secs

     total energy              =   -1525.37321693 Ry
     estimated scf accuracy    <       0.00002847 Ry

     total magnetization       =    27.99 Bohr mag/cell
     absolute magnetization    =    32.03 Bohr mag/cell
[tb_dev] Currently allocated     6.24E+00 Mbytes, locked:    0 /   8
[tb_pin] Currently allocated     0.00E+00 Mbytes, locked:    0 /   0

     iteration # 30     ecut=    40.00 Ry     beta= 0.40
     Davidson diagonalization with overlap

---- Real-time Memory Report at c_bands before calling an iterative solver
          3042 MiB given to the printing process from OS
         -1297 MiB allocation reported by mallinfo(arena+hblkhd)
         53194 MiB available memory on the node where the printing process lives
     GPU memory used/free/total (MiB): 3186 / 13094 / 16280
------------------
     ethr =  2.03E-08,  avg # of iterations =  4.7

     negative rho (up, down):  0.000E+00 2.075E-02

     total cpu time spent up to now is      368.5 secs

     total energy              =   -1525.37327670 Ry
     estimated scf accuracy    <       0.00001528 Ry

     total magnetization       =    27.99 Bohr mag/cell
     absolute magnetization    =    32.02 Bohr mag/cell
[tb_dev] Currently allocated     6.24E+00 Mbytes, locked:    0 /   8
[tb_pin] Currently allocated     0.00E+00 Mbytes, locked:    0 /   0

     iteration # 31     ecut=    40.00 Ry     beta= 0.40
     Davidson diagonalization with overlap

---- Real-time Memory Report at c_bands before calling an iterative solver
          3042 MiB given to the printing process from OS
         -1297 MiB allocation reported by mallinfo(arena+hblkhd)
         53194 MiB available memory on the node where the printing process lives
     GPU memory used/free/total (MiB): 3186 / 13094 / 16280
------------------
     ethr =  1.09E-08,  avg # of iterations =  3.6

     negative rho (up, down):  0.000E+00 2.074E-02

     total cpu time spent up to now is      380.5 secs

     total energy              =   -1525.37328263 Ry
     estimated scf accuracy    <       0.00001089 Ry

     total magnetization       =    27.99 Bohr mag/cell
     absolute magnetization    =    32.01 Bohr mag/cell
[tb_dev] Currently allocated     6.24E+00 Mbytes, locked:    0 /   8
[tb_pin] Currently allocated     0.00E+00 Mbytes, locked:    0 /   0

     iteration # 32     ecut=    40.00 Ry     beta= 0.40
     Davidson diagonalization with overlap

---- Real-time Memory Report at c_bands before calling an iterative solver
          3042 MiB given to the printing process from OS
         -1297 MiB allocation reported by mallinfo(arena+hblkhd)
         53194 MiB available memory on the node where the printing process lives
     GPU memory used/free/total (MiB): 3186 / 13094 / 16280
------------------
     ethr =  7.78E-09,  avg # of iterations =  4.8

     negative rho (up, down):  0.000E+00 2.074E-02

     total cpu time spent up to now is      394.4 secs

     total energy              =   -1525.37331010 Ry
     estimated scf accuracy    <       0.00000737 Ry

     total magnetization       =    27.98 Bohr mag/cell
     absolute magnetization    =    32.01 Bohr mag/cell
[tb_dev] Currently allocated     6.24E+00 Mbytes, locked:    0 /   8
[tb_pin] Currently allocated     0.00E+00 Mbytes, locked:    0 /   0

     iteration # 33     ecut=    40.00 Ry     beta= 0.40
     Davidson diagonalization with overlap

---- Real-time Memory Report at c_bands before calling an iterative solver
          3042 MiB given to the printing process from OS
         -1297 MiB allocation reported by mallinfo(arena+hblkhd)
         53194 MiB available memory on the node where the printing process lives
     GPU memory used/free/total (MiB): 3186 / 13094 / 16280
------------------
     ethr =  5.26E-09,  avg # of iterations =  4.9

     negative rho (up, down):  0.000E+00 2.074E-02

     total cpu time spent up to now is      408.1 secs

     total energy              =   -1525.37333013 Ry
     estimated scf accuracy    <       0.00000806 Ry

     total magnetization       =    27.98 Bohr mag/cell
     absolute magnetization    =    31.99 Bohr mag/cell
[tb_dev] Currently allocated     6.24E+00 Mbytes, locked:    0 /   8
[tb_pin] Currently allocated     0.00E+00 Mbytes, locked:    0 /   0

     iteration # 34     ecut=    40.00 Ry     beta= 0.40
     Davidson diagonalization with overlap

---- Real-time Memory Report at c_bands before calling an iterative solver
          3042 MiB given to the printing process from OS
         -1297 MiB allocation reported by mallinfo(arena+hblkhd)
         53195 MiB available memory on the node where the printing process lives
     GPU memory used/free/total (MiB): 3186 / 13094 / 16280
------------------
     c_bands:  1 eigenvalues not converged
     ethr =  5.26E-09,  avg # of iterations =  4.1

     negative rho (up, down):  0.000E+00 2.074E-02

     total cpu time spent up to now is      420.8 secs

     total energy              =   -1525.37330516 Ry
     estimated scf accuracy    <       0.00000767 Ry

     total magnetization       =    27.98 Bohr mag/cell
     absolute magnetization    =    31.98 Bohr mag/cell
[tb_dev] Currently allocated     6.24E+00 Mbytes, locked:    0 /   8
[tb_pin] Currently allocated     0.00E+00 Mbytes, locked:    0 /   0

     iteration # 35     ecut=    40.00 Ry     beta= 0.40
     Davidson diagonalization with overlap

---- Real-time Memory Report at c_bands before calling an iterative solver
          3042 MiB given to the printing process from OS
         -1297 MiB allocation reported by mallinfo(arena+hblkhd)
         53195 MiB available memory on the node where the printing process lives
     GPU memory used/free/total (MiB): 3186 / 13094 / 16280
------------------
     ethr =  5.26E-09,  avg # of iterations =  3.8

     negative rho (up, down):  0.000E+00 2.074E-02

     total cpu time spent up to now is      433.7 secs

     total energy              =   -1525.37332273 Ry
     estimated scf accuracy    <       0.00001833 Ry

     total magnetization       =    27.98 Bohr mag/cell
     absolute magnetization    =    31.98 Bohr mag/cell
[tb_dev] Currently allocated     6.24E+00 Mbytes, locked:    0 /   8
[tb_pin] Currently allocated     0.00E+00 Mbytes, locked:    0 /   0

     iteration # 36     ecut=    40.00 Ry     beta= 0.40
     Davidson diagonalization with overlap

---- Real-time Memory Report at c_bands before calling an iterative solver
          3042 MiB given to the printing process from OS
         -1297 MiB allocation reported by mallinfo(arena+hblkhd)
         53196 MiB available memory on the node where the printing process lives
     GPU memory used/free/total (MiB): 3186 / 13094 / 16280
------------------
     ethr =  5.26E-09,  avg # of iterations =  2.6

     negative rho (up, down):  0.000E+00 2.074E-02

     total cpu time spent up to now is      444.5 secs

     total energy              =   -1525.37332634 Ry
     estimated scf accuracy    <       0.00001138 Ry

     total magnetization       =    27.98 Bohr mag/cell
     absolute magnetization    =    31.98 Bohr mag/cell
[tb_dev] Currently allocated     6.24E+00 Mbytes, locked:    0 /   8
[tb_pin] Currently allocated     0.00E+00 Mbytes, locked:    0 /   0

     iteration # 37     ecut=    40.00 Ry     beta= 0.40
     Davidson diagonalization with overlap

---- Real-time Memory Report at c_bands before calling an iterative solver
          3042 MiB given to the printing process from OS
         -1297 MiB allocation reported by mallinfo(arena+hblkhd)
         53196 MiB available memory on the node where the printing process lives
     GPU memory used/free/total (MiB): 3186 / 13094 / 16280
------------------
     ethr =  5.26E-09,  avg # of iterations =  1.2

     negative rho (up, down):  0.000E+00 2.074E-02

     total cpu time spent up to now is      453.2 secs

     total energy              =   -1525.37332805 Ry
     estimated scf accuracy    <       0.00001181 Ry

     total magnetization       =    27.98 Bohr mag/cell
     absolute magnetization    =    31.98 Bohr mag/cell
[tb_dev] Currently allocated     6.24E+00 Mbytes, locked:    0 /   8
[tb_pin] Currently allocated     0.00E+00 Mbytes, locked:    0 /   0

     iteration # 38     ecut=    40.00 Ry     beta= 0.40
     Davidson diagonalization with overlap

---- Real-time Memory Report at c_bands before calling an iterative solver
          3042 MiB given to the printing process from OS
         -1297 MiB allocation reported by mallinfo(arena+hblkhd)
         53196 MiB available memory on the node where the printing process lives
     GPU memory used/free/total (MiB): 3186 / 13094 / 16280
------------------
     ethr =  5.26E-09,  avg # of iterations =  3.3

     negative rho (up, down):  0.000E+00 2.074E-02

     total cpu time spent up to now is      464.0 secs

     total energy              =   -1525.37332632 Ry
     estimated scf accuracy    <       0.00000613 Ry

     total magnetization       =    27.98 Bohr mag/cell
     absolute magnetization    =    31.99 Bohr mag/cell
[tb_dev] Currently allocated     6.24E+00 Mbytes, locked:    0 /   8
[tb_pin] Currently allocated     0.00E+00 Mbytes, locked:    0 /   0

     iteration # 39     ecut=    40.00 Ry     beta= 0.40
     Davidson diagonalization with overlap

---- Real-time Memory Report at c_bands before calling an iterative solver
          3042 MiB given to the printing process from OS
         -1297 MiB allocation reported by mallinfo(arena+hblkhd)
         53196 MiB available memory on the node where the printing process lives
     GPU memory used/free/total (MiB): 3186 / 13094 / 16280
------------------
     ethr =  4.38E-09,  avg # of iterations =  5.4

     negative rho (up, down):  0.000E+00 2.074E-02

     total cpu time spent up to now is      478.3 secs

     total energy              =   -1525.37331414 Ry
     estimated scf accuracy    <       0.00003744 Ry

     total magnetization       =    27.99 Bohr mag/cell
     absolute magnetization    =    32.00 Bohr mag/cell
[tb_dev] Currently allocated     6.24E+00 Mbytes, locked:    0 /   8
[tb_pin] Currently allocated     0.00E+00 Mbytes, locked:    0 /   0

     iteration # 40     ecut=    40.00 Ry     beta= 0.40
     Davidson diagonalization with overlap

---- Real-time Memory Report at c_bands before calling an iterative solver
          3042 MiB given to the printing process from OS
         -1297 MiB allocation reported by mallinfo(arena+hblkhd)
         53195 MiB available memory on the node where the printing process lives
     GPU memory used/free/total (MiB): 3186 / 13094 / 16280
------------------
     ethr =  4.38E-09,  avg # of iterations =  3.2

     negative rho (up, down):  0.000E+00 2.074E-02

     total cpu time spent up to now is      489.8 secs

     total energy              =   -1525.37330240 Ry
     estimated scf accuracy    <       0.00003263 Ry

     total magnetization       =    27.99 Bohr mag/cell
     absolute magnetization    =    32.00 Bohr mag/cell
[tb_dev] Currently allocated     6.24E+00 Mbytes, locked:    0 /   8
[tb_pin] Currently allocated     0.00E+00 Mbytes, locked:    0 /   0

     iteration # 41     ecut=    40.00 Ry     beta= 0.40
     Davidson diagonalization with overlap

---- Real-time Memory Report at c_bands before calling an iterative solver
          3042 MiB given to the printing process from OS
         -1297 MiB allocation reported by mallinfo(arena+hblkhd)
         53195 MiB available memory on the node where the printing process lives
     GPU memory used/free/total (MiB): 3186 / 13094 / 16280
------------------
     ethr =  4.38E-09,  avg # of iterations =  3.9

     negative rho (up, down):  0.000E+00 2.074E-02

     total cpu time spent up to now is      502.3 secs

     total energy              =   -1525.37330798 Ry
     estimated scf accuracy    <       0.00002314 Ry

     total magnetization       =    27.99 Bohr mag/cell
     absolute magnetization    =    32.00 Bohr mag/cell
[tb_dev] Currently allocated     6.24E+00 Mbytes, locked:    0 /   8
[tb_pin] Currently allocated     0.00E+00 Mbytes, locked:    0 /   0

     iteration # 42     ecut=    40.00 Ry     beta= 0.40
     Davidson diagonalization with overlap

---- Real-time Memory Report at c_bands before calling an iterative solver
          3042 MiB given to the printing process from OS
         -1297 MiB allocation reported by mallinfo(arena+hblkhd)
         53195 MiB available memory on the node where the printing process lives
     GPU memory used/free/total (MiB): 3186 / 13094 / 16280
------------------
     ethr =  4.38E-09,  avg # of iterations =  1.1

     negative rho (up, down):  0.000E+00 2.075E-02

     total cpu time spent up to now is      510.8 secs

     total energy              =   -1525.37331228 Ry
     estimated scf accuracy    <       0.00002019 Ry

     total magnetization       =    27.98 Bohr mag/cell
     absolute magnetization    =    32.00 Bohr mag/cell
[tb_dev] Currently allocated     6.24E+00 Mbytes, locked:    0 /   8
[tb_pin] Currently allocated     0.00E+00 Mbytes, locked:    0 /   0

     iteration # 43     ecut=    40.00 Ry     beta= 0.40
     Davidson diagonalization with overlap

---- Real-time Memory Report at c_bands before calling an iterative solver
          3042 MiB given to the printing process from OS
         -1297 MiB allocation reported by mallinfo(arena+hblkhd)
         53195 MiB available memory on the node where the printing process lives
     GPU memory used/free/total (MiB): 3186 / 13094 / 16280
------------------
     ethr =  4.38E-09,  avg # of iterations =  4.0

     negative rho (up, down):  0.000E+00 2.075E-02

     total cpu time spent up to now is      523.3 secs

     total energy              =   -1525.37331407 Ry
     estimated scf accuracy    <       0.00005989 Ry

     total magnetization       =    27.99 Bohr mag/cell
     absolute magnetization    =    32.00 Bohr mag/cell
[tb_dev] Currently allocated     6.24E+00 Mbytes, locked:    0 /   8
[tb_pin] Currently allocated     0.00E+00 Mbytes, locked:    0 /   0

     iteration # 44     ecut=    40.00 Ry     beta= 0.40
     Davidson diagonalization with overlap

---- Real-time Memory Report at c_bands before calling an iterative solver
          3042 MiB given to the printing process from OS
         -1297 MiB allocation reported by mallinfo(arena+hblkhd)
         53196 MiB available memory on the node where the printing process lives
     GPU memory used/free/total (MiB): 3186 / 13094 / 16280
------------------
     ethr =  4.38E-09,  avg # of iterations =  4.1

     negative rho (up, down):  0.000E+00 2.075E-02

     total cpu time spent up to now is      535.3 secs

     total energy              =   -1525.37331883 Ry
     estimated scf accuracy    <       0.00002814 Ry

     total magnetization       =    27.99 Bohr mag/cell
     absolute magnetization    =    31.99 Bohr mag/cell
[tb_dev] Currently allocated     6.24E+00 Mbytes, locked:    0 /   8
[tb_pin] Currently allocated     0.00E+00 Mbytes, locked:    0 /   0

     iteration # 45     ecut=    40.00 Ry     beta= 0.40
     Davidson diagonalization with overlap

---- Real-time Memory Report at c_bands before calling an iterative solver
          3042 MiB given to the printing process from OS
         -1297 MiB allocation reported by mallinfo(arena+hblkhd)
         53196 MiB available memory on the node where the printing process lives
     GPU memory used/free/total (MiB): 3186 / 13094 / 16280
------------------
     ethr =  4.38E-09,  avg # of iterations =  1.0

     negative rho (up, down):  0.000E+00 2.074E-02

     total cpu time spent up to now is      543.9 secs

     total energy              =   -1525.37332242 Ry
     estimated scf accuracy    <       0.00002947 Ry

     total magnetization       =    27.99 Bohr mag/cell
     absolute magnetization    =    31.99 Bohr mag/cell
[tb_dev] Currently allocated     6.24E+00 Mbytes, locked:    0 /   8
[tb_pin] Currently allocated     0.00E+00 Mbytes, locked:    0 /   0

     iteration # 46     ecut=    40.00 Ry     beta= 0.40
     Davidson diagonalization with overlap

---- Real-time Memory Report at c_bands before calling an iterative solver
          3042 MiB given to the printing process from OS
         -1297 MiB allocation reported by mallinfo(arena+hblkhd)
         53196 MiB available memory on the node where the printing process lives
     GPU memory used/free/total (MiB): 3186 / 13094 / 16280
------------------
     ethr =  4.38E-09,  avg # of iterations =  2.3

     negative rho (up, down):  0.000E+00 2.075E-02

     total cpu time spent up to now is      553.7 secs

     total energy              =   -1525.37317608 Ry
     estimated scf accuracy    <       0.00002670 Ry

     total magnetization       =    27.99 Bohr mag/cell
     absolute magnetization    =    31.99 Bohr mag/cell
[tb_dev] Currently allocated     6.24E+00 Mbytes, locked:    0 /   8
[tb_pin] Currently allocated     0.00E+00 Mbytes, locked:    0 /   0

     iteration # 47     ecut=    40.00 Ry     beta= 0.40
     Davidson diagonalization with overlap

---- Real-time Memory Report at c_bands before calling an iterative solver
          3042 MiB given to the printing process from OS
         -1297 MiB allocation reported by mallinfo(arena+hblkhd)
         53196 MiB available memory on the node where the printing process lives
     GPU memory used/free/total (MiB): 3186 / 13094 / 16280
------------------
     c_bands:  1 eigenvalues not converged
     ethr =  4.38E-09,  avg # of iterations =  6.6

     negative rho (up, down):  0.000E+00 2.074E-02

     total cpu time spent up to now is      570.5 secs

     total energy              =   -1525.37259829 Ry
     estimated scf accuracy    <       0.00002872 Ry

     total magnetization       =    27.99 Bohr mag/cell
     absolute magnetization    =    32.00 Bohr mag/cell
[tb_dev] Currently allocated     6.24E+00 Mbytes, locked:    0 /   8
[tb_pin] Currently allocated     0.00E+00 Mbytes, locked:    0 /   0

     iteration # 48     ecut=    40.00 Ry     beta= 0.40
     Davidson diagonalization with overlap

---- Real-time Memory Report at c_bands before calling an iterative solver
          3042 MiB given to the printing process from OS
         -1297 MiB allocation reported by mallinfo(arena+hblkhd)
         53196 MiB available memory on the node where the printing process lives
     GPU memory used/free/total (MiB): 3186 / 13094 / 16280
------------------
     c_bands:  1 eigenvalues not converged
     c_bands:  1 eigenvalues not converged
     c_bands:  1 eigenvalues not converged
     c_bands:  1 eigenvalues not converged
     c_bands:  2 eigenvalues not converged
     c_bands:  2 eigenvalues not converged
     c_bands:  1 eigenvalues not converged
     ethr =  4.38E-09,  avg # of iterations = 10.1

     negative rho (up, down):  0.000E+00 2.074E-02

     total cpu time spent up to now is      593.6 secs

     total energy              =   -1525.37341522 Ry
     estimated scf accuracy    <       0.00000814 Ry

     total magnetization       =    27.98 Bohr mag/cell
     absolute magnetization    =    31.97 Bohr mag/cell
[tb_dev] Currently allocated     6.24E+00 Mbytes, locked:    0 /   8
[tb_pin] Currently allocated     0.00E+00 Mbytes, locked:    0 /   0

     iteration # 49     ecut=    40.00 Ry     beta= 0.40
     Davidson diagonalization with overlap

---- Real-time Memory Report at c_bands before calling an iterative solver
          3042 MiB given to the printing process from OS
         -1297 MiB allocation reported by mallinfo(arena+hblkhd)
         53196 MiB available memory on the node where the printing process lives
     GPU memory used/free/total (MiB): 3186 / 13094 / 16280
------------------
     ethr =  4.38E-09,  avg # of iterations =  4.3

     negative rho (up, down):  0.000E+00 2.074E-02

     total cpu time spent up to now is      606.8 secs

     total energy              =   -1525.37292152 Ry
     estimated scf accuracy    <       0.00001068 Ry

     total magnetization       =    27.98 Bohr mag/cell
     absolute magnetization    =    31.97 Bohr mag/cell
[tb_dev] Currently allocated     6.24E+00 Mbytes, locked:    0 /   8
[tb_pin] Currently allocated     0.00E+00 Mbytes, locked:    0 /   0

     iteration # 50     ecut=    40.00 Ry     beta= 0.40
     Davidson diagonalization with overlap

---- Real-time Memory Report at c_bands before calling an iterative solver
          3042 MiB given to the printing process from OS
         -1297 MiB allocation reported by mallinfo(arena+hblkhd)
         53195 MiB available memory on the node where the printing process lives
     GPU memory used/free/total (MiB): 3186 / 13094 / 16280
------------------
     c_bands:  1 eigenvalues not converged
     c_bands:  1 eigenvalues not converged
     c_bands:  2 eigenvalues not converged
     ethr =  4.38E-09,  avg # of iterations =  8.8

     negative rho (up, down):  0.000E+00 2.073E-02

     total cpu time spent up to now is      627.0 secs

     total energy              =   -1525.37332690 Ry
     estimated scf accuracy    <       0.00002047 Ry

     total magnetization       =    27.99 Bohr mag/cell
     absolute magnetization    =    31.99 Bohr mag/cell
[tb_dev] Currently allocated     6.24E+00 Mbytes, locked:    0 /   8
[tb_pin] Currently allocated     0.00E+00 Mbytes, locked:    0 /   0

     iteration # 51     ecut=    40.00 Ry     beta= 0.40
     Davidson diagonalization with overlap

---- Real-time Memory Report at c_bands before calling an iterative solver
          3042 MiB given to the printing process from OS
         -1297 MiB allocation reported by mallinfo(arena+hblkhd)
         53196 MiB available memory on the node where the printing process lives
     GPU memory used/free/total (MiB): 3186 / 13094 / 16280
------------------
     ethr =  4.38E-09,  avg # of iterations =  5.6

     negative rho (up, down):  0.000E+00 2.073E-02

     total cpu time spent up to now is      641.7 secs

     total energy              =   -1525.37330257 Ry
     estimated scf accuracy    <       0.00000575 Ry

     total magnetization       =    27.98 Bohr mag/cell
     absolute magnetization    =    31.98 Bohr mag/cell
[tb_dev] Currently allocated     6.24E+00 Mbytes, locked:    0 /   8
[tb_pin] Currently allocated     0.00E+00 Mbytes, locked:    0 /   0

     iteration # 52     ecut=    40.00 Ry     beta= 0.40
     Davidson diagonalization with overlap

---- Real-time Memory Report at c_bands before calling an iterative solver
          3042 MiB given to the printing process from OS
         -1297 MiB allocation reported by mallinfo(arena+hblkhd)
         53196 MiB available memory on the node where the printing process lives
     GPU memory used/free/total (MiB): 3186 / 13094 / 16280
------------------
     ethr =  4.11E-09,  avg # of iterations =  4.1

     negative rho (up, down):  0.000E+00 2.074E-02

     total cpu time spent up to now is      654.6 secs

     total energy              =   -1525.36713090 Ry
     estimated scf accuracy    <       0.00000559 Ry

     total magnetization       =    27.98 Bohr mag/cell
     absolute magnetization    =    31.98 Bohr mag/cell
[tb_dev] Currently allocated     6.24E+00 Mbytes, locked:    0 /   8
[tb_pin] Currently allocated     0.00E+00 Mbytes, locked:    0 /   0

     iteration # 53     ecut=    40.00 Ry     beta= 0.40
     Davidson diagonalization with overlap

---- Real-time Memory Report at c_bands before calling an iterative solver
          3042 MiB given to the printing process from OS
         -1297 MiB allocation reported by mallinfo(arena+hblkhd)
         53195 MiB available memory on the node where the printing process lives
     GPU memory used/free/total (MiB): 3186 / 13094 / 16280
------------------
     c_bands:  2 eigenvalues not converged
     c_bands:  2 eigenvalues not converged
     c_bands:  1 eigenvalues not converged
     c_bands:  1 eigenvalues not converged
     c_bands:  1 eigenvalues not converged
     c_bands:  2 eigenvalues not converged
     c_bands:  2 eigenvalues not converged
     c_bands:  2 eigenvalues not converged
     c_bands:  2 eigenvalues not converged
     c_bands:  2 eigenvalues not converged
     c_bands:  2 eigenvalues not converged
     c_bands:  1 eigenvalues not converged
     c_bands:  1 eigenvalues not converged
     c_bands:  1 eigenvalues not converged
     c_bands:  4 eigenvalues not converged
     c_bands:  2 eigenvalues not converged
     c_bands:  3 eigenvalues not converged
     c_bands:  1 eigenvalues not converged
     c_bands:  2 eigenvalues not converged
     c_bands:  2 eigenvalues not converged
     c_bands:  2 eigenvalues not converged
     c_bands:  2 eigenvalues not converged
     c_bands:  2 eigenvalues not converged
     c_bands:  2 eigenvalues not converged
     c_bands:  4 eigenvalues not converged
     c_bands:  2 eigenvalues not converged
     c_bands:  2 eigenvalues not converged
     c_bands:  1 eigenvalues not converged
     c_bands:  1 eigenvalues not converged
     ethr =  3.99E-09,  avg # of iterations = 15.3

     negative rho (up, down):  0.000E+00 2.074E-02

     total cpu time spent up to now is      688.0 secs

     total energy              =   -1525.36796857 Ry
     estimated scf accuracy    <       0.00018156 Ry

     total magnetization       =    27.99 Bohr mag/cell
     absolute magnetization    =    32.06 Bohr mag/cell
[tb_dev] Currently allocated     6.24E+00 Mbytes, locked:    0 /   8
[tb_pin] Currently allocated     0.00E+00 Mbytes, locked:    0 /   0

     iteration # 54     ecut=    40.00 Ry     beta= 0.40
     Davidson diagonalization with overlap

---- Real-time Memory Report at c_bands before calling an iterative solver
          3042 MiB given to the printing process from OS
         -1297 MiB allocation reported by mallinfo(arena+hblkhd)
         53196 MiB available memory on the node where the printing process lives
     GPU memory used/free/total (MiB): 3186 / 13094 / 16280
------------------
     c_bands:  2 eigenvalues not converged
     c_bands:  1 eigenvalues not converged
     c_bands:  1 eigenvalues not converged
     c_bands:  1 eigenvalues not converged
     c_bands:  2 eigenvalues not converged
     c_bands:  2 eigenvalues not converged
     c_bands:  1 eigenvalues not converged
     c_bands:  1 eigenvalues not converged
     c_bands:  3 eigenvalues not converged
     c_bands:  2 eigenvalues not converged
     c_bands:  2 eigenvalues not converged
     c_bands:  4 eigenvalues not converged
     c_bands:  1 eigenvalues not converged
     c_bands:  3 eigenvalues not converged
     c_bands:  4 eigenvalues not converged
     c_bands:  2 eigenvalues not converged
     c_bands:  2 eigenvalues not converged
     c_bands:  2 eigenvalues not converged
     c_bands:  2 eigenvalues not converged
     c_bands:  2 eigenvalues not converged
     c_bands:  2 eigenvalues not converged
     c_bands:  2 eigenvalues not converged
     ethr =  3.99E-09,  avg # of iterations = 14.6

     negative rho (up, down):  0.000E+00 2.075E-02

     total cpu time spent up to now is      720.8 secs

     total energy              =   -1525.37184624 Ry
     estimated scf accuracy    <       0.00001122 Ry

     total magnetization       =    27.98 Bohr mag/cell
     absolute magnetization    =    31.98 Bohr mag/cell
[tb_dev] Currently allocated     6.24E+00 Mbytes, locked:    0 /   8
[tb_pin] Currently allocated     0.00E+00 Mbytes, locked:    0 /   0

     iteration # 55     ecut=    40.00 Ry     beta= 0.40
     Davidson diagonalization with overlap

---- Real-time Memory Report at c_bands before calling an iterative solver
          3042 MiB given to the printing process from OS
         -1297 MiB allocation reported by mallinfo(arena+hblkhd)
         53197 MiB available memory on the node where the printing process lives
     GPU memory used/free/total (MiB): 3186 / 13094 / 16280
------------------
     c_bands:  1 eigenvalues not converged
     c_bands:  1 eigenvalues not converged
     c_bands:  1 eigenvalues not converged
     c_bands:  2 eigenvalues not converged
     c_bands:  2 eigenvalues not converged
     c_bands:  1 eigenvalues not converged
     c_bands:  2 eigenvalues not converged
     c_bands:  1 eigenvalues not converged
     c_bands:  1 eigenvalues not converged
     c_bands:  2 eigenvalues not converged
     c_bands:  3 eigenvalues not converged
     c_bands:  2 eigenvalues not converged
     c_bands:  2 eigenvalues not converged
     c_bands:  2 eigenvalues not converged
     c_bands:  2 eigenvalues not converged
     ethr =  3.99E-09,  avg # of iterations = 12.3

     negative rho (up, down):  0.000E+00 2.075E-02

     total cpu time spent up to now is      748.2 secs

     total energy              =   -1525.36896628 Ry
     estimated scf accuracy    <       0.00004119 Ry

     total magnetization       =    27.98 Bohr mag/cell
     absolute magnetization    =    31.95 Bohr mag/cell
[tb_dev] Currently allocated     6.24E+00 Mbytes, locked:    0 /   8
[tb_pin] Currently allocated     0.00E+00 Mbytes, locked:    0 /   0

     iteration # 56     ecut=    40.00 Ry     beta= 0.40
     Davidson diagonalization with overlap

---- Real-time Memory Report at c_bands before calling an iterative solver
          3042 MiB given to the printing process from OS
         -1297 MiB allocation reported by mallinfo(arena+hblkhd)
         53196 MiB available memory on the node where the printing process lives
     GPU memory used/free/total (MiB): 3186 / 13094 / 16280
------------------
     c_bands:  1 eigenvalues not converged
     c_bands:  4 eigenvalues not converged
     c_bands:  2 eigenvalues not converged
     c_bands:  1 eigenvalues not converged
     c_bands:  4 eigenvalues not converged
     c_bands:  1 eigenvalues not converged
     c_bands:  5 eigenvalues not converged
     c_bands:  4 eigenvalues not converged
     c_bands:  1 eigenvalues not converged
     c_bands:  1 eigenvalues not converged
     c_bands:  1 eigenvalues not converged
[...]
     c_bands:  1 eigenvalues not converged
     c_bands:  1 eigenvalues not converged
     c_bands:  1 eigenvalues not converged
     c_bands:  1 eigenvalues not converged
     c_bands:  1 eigenvalues not converged
     c_bands:  1 eigenvalues not converged
     ethr =  3.99E-09,  avg # of iterations = 10.8

     negative rho (up, down):  0.000E+00 2.074E-02

     total cpu time spent up to now is     1002.8 secs

     total energy              =   -1525.37067828 Ry
     estimated scf accuracy    <       0.00004657 Ry

     total magnetization       =    27.99 Bohr mag/cell
     absolute magnetization    =    32.04 Bohr mag/cell
[tb_dev] Currently allocated     6.24E+00 Mbytes, locked:    0 /   8
[tb_pin] Currently allocated     0.00E+00 Mbytes, locked:    0 /   0

     iteration # 69     ecut=    40.00 Ry     beta= 0.40
     Davidson diagonalization with overlap

---- Real-time Memory Report at c_bands before calling an iterative solver
          3042 MiB given to the printing process from OS
         -1297 MiB allocation reported by mallinfo(arena+hblkhd)
         53194 MiB available memory on the node where the printing process lives
     GPU memory used/free/total (MiB): 3186 / 13094 / 16280
------------------
     c_bands:  1 eigenvalues not converged
     c_bands:  1 eigenvalues not converged
     c_bands:  1 eigenvalues not converged
     c_bands:  1 eigenvalues not converged
     c_bands:  3 eigenvalues not converged
     c_bands:  1 eigenvalues not converged
     c_bands:  1 eigenvalues not converged
     c_bands:  2 eigenvalues not converged
     c_bands:  1 eigenvalues not converged
     c_bands:  4 eigenvalues not converged
     c_bands:  2 eigenvalues not converged
     c_bands:  2 eigenvalues not converged
     c_bands:  1 eigenvalues not converged
     c_bands:  3 eigenvalues not converged
     c_bands:  2 eigenvalues not converged
     c_bands:  2 eigenvalues not converged
     c_bands:  2 eigenvalues not converged
     c_bands:  2 eigenvalues not converged
     c_bands:  2 eigenvalues not converged
     c_bands:  2 eigenvalues not converged
     c_bands:  2 eigenvalues not converged
     ethr =  3.99E-09,  avg # of iterations = 13.1

     negative rho (up, down):  0.000E+00 2.074E-02

     total cpu time spent up to now is     1032.0 secs

     total energy              =   -1525.37318565 Ry
     estimated scf accuracy    <       0.00001758 Ry

     total magnetization       =    27.98 Bohr mag/cell
     absolute magnetization    =    31.98 Bohr mag/cell
[tb_dev] Currently allocated     6.24E+00 Mbytes, locked:    0 /   8
[tb_pin] Currently allocated     0.00E+00 Mbytes, locked:    0 /   0

     iteration # 70     ecut=    40.00 Ry     beta= 0.40
     Davidson diagonalization with overlap

---- Real-time Memory Report at c_bands before calling an iterative solver
          3042 MiB given to the printing process from OS
         -1297 MiB allocation reported by mallinfo(arena+hblkhd)
         53196 MiB available memory on the node where the printing process lives
     GPU memory used/free/total (MiB): 3186 / 13094 / 16280
------------------
     c_bands:  1 eigenvalues not converged
     ethr =  3.99E-09,  avg # of iterations =  7.2

     negative rho (up, down):  0.000E+00 2.074E-02

     total cpu time spent up to now is     1049.7 secs

     total energy              =   -1525.37282523 Ry
     estimated scf accuracy    <       0.00001549 Ry

     total magnetization       =    27.98 Bohr mag/cell
     absolute magnetization    =    31.99 Bohr mag/cell
[tb_dev] Currently allocated     6.24E+00 Mbytes, locked:    0 /   8
[tb_pin] Currently allocated     0.00E+00 Mbytes, locked:    0 /   0

     iteration # 71     ecut=    40.00 Ry     beta= 0.40
     Davidson diagonalization with overlap

---- Real-time Memory Report at c_bands before calling an iterative solver
          3042 MiB given to the printing process from OS
         -1297 MiB allocation reported by mallinfo(arena+hblkhd)
         53195 MiB available memory on the node where the printing process lives
     GPU memory used/free/total (MiB): 3186 / 13094 / 16280
------------------
     c_bands:  1 eigenvalues not converged
     c_bands:  1 eigenvalues not converged
     c_bands:  1 eigenvalues not converged
     c_bands:  2 eigenvalues not converged
     ethr =  3.99E-09,  avg # of iterations =  9.3

     negative rho (up, down):  0.000E+00 2.074E-02

     total cpu time spent up to now is     1071.0 secs

     total energy              =   -1525.37307599 Ry
     estimated scf accuracy    <       0.00002163 Ry

     total magnetization       =    27.98 Bohr mag/cell
     absolute magnetization    =    32.01 Bohr mag/cell
[tb_dev] Currently allocated     6.24E+00 Mbytes, locked:    0 /   8
[tb_pin] Currently allocated     0.00E+00 Mbytes, locked:    0 /   0

     iteration # 72     ecut=    40.00 Ry     beta= 0.40
     Davidson diagonalization with overlap

---- Real-time Memory Report at c_bands before calling an iterative solver
          3042 MiB given to the printing process from OS
         -1297 MiB allocation reported by mallinfo(arena+hblkhd)
         53196 MiB available memory on the node where the printing process lives
     GPU memory used/free/total (MiB): 3186 / 13094 / 16280
------------------
     c_bands:  1 eigenvalues not converged
     c_bands:  1 eigenvalues not converged
     ethr =  3.99E-09,  avg # of iterations =  7.9

     negative rho (up, down):  0.000E+00 2.074E-02

     total cpu time spent up to now is     1089.3 secs

     total energy              =   -1525.37316411 Ry
     estimated scf accuracy    <       0.00003084 Ry

     total magnetization       =    27.99 Bohr mag/cell
     absolute magnetization    =    32.01 Bohr mag/cell
[tb_dev] Currently allocated     6.24E+00 Mbytes, locked:    0 /   8
[tb_pin] Currently allocated     0.00E+00 Mbytes, locked:    0 /   0

     iteration # 73     ecut=    40.00 Ry     beta= 0.40
     Davidson diagonalization with overlap

---- Real-time Memory Report at c_bands before calling an iterative solver
          3042 MiB given to the printing process from OS
         -1297 MiB allocation reported by mallinfo(arena+hblkhd)
         53196 MiB available memory on the node where the printing process lives
     GPU memory used/free/total (MiB): 3186 / 13094 / 16280
------------------
     ethr =  3.99E-09,  avg # of iterations =  2.0

     negative rho (up, down):  0.000E+00 2.074E-02

     total cpu time spent up to now is     1098.8 secs

     total energy              =   -1525.37282547 Ry
     estimated scf accuracy    <       0.00002765 Ry

     total magnetization       =    27.99 Bohr mag/cell
     absolute magnetization    =    32.01 Bohr mag/cell
[tb_dev] Currently allocated     6.24E+00 Mbytes, locked:    0 /   8
[tb_pin] Currently allocated     0.00E+00 Mbytes, locked:    0 /   0

     iteration # 74     ecut=    40.00 Ry     beta= 0.40
     Davidson diagonalization with overlap

---- Real-time Memory Report at c_bands before calling an iterative solver
          3042 MiB given to the printing process from OS
         -1297 MiB allocation reported by mallinfo(arena+hblkhd)
         53196 MiB available memory on the node where the printing process lives
     GPU memory used/free/total (MiB): 3186 / 13094 / 16280
------------------
     c_bands:  1 eigenvalues not converged
     c_bands:  1 eigenvalues not converged
     c_bands:  1 eigenvalues not converged
     c_bands:  2 eigenvalues not converged
     ethr =  3.99E-09,  avg # of iterations =  9.6

     negative rho (up, down):  0.000E+00 2.074E-02

     total cpu time spent up to now is     1120.0 secs

     total energy              =   -1525.37326004 Ry
     estimated scf accuracy    <       0.00002232 Ry

     total magnetization       =    27.98 Bohr mag/cell
     absolute magnetization    =    31.99 Bohr mag/cell
[tb_dev] Currently allocated     6.24E+00 Mbytes, locked:    0 /   8
[tb_pin] Currently allocated     0.00E+00 Mbytes, locked:    0 /   0

     iteration # 75     ecut=    40.00 Ry     beta= 0.40
     Davidson diagonalization with overlap

---- Real-time Memory Report at c_bands before calling an iterative solver
          3042 MiB given to the printing process from OS
         -1297 MiB allocation reported by mallinfo(arena+hblkhd)
         53170 MiB available memory on the node where the printing process lives
     GPU memory used/free/total (MiB): 3186 / 13094 / 16280
------------------
     c_bands:  1 eigenvalues not converged
     ethr =  3.99E-09,  avg # of iterations =  2.8

     negative rho (up, down):  0.000E+00 2.074E-02

     total cpu time spent up to now is     1130.2 secs

     total energy              =   -1525.37325920 Ry
     estimated scf accuracy    <       0.00002229 Ry

     total magnetization       =    27.98 Bohr mag/cell
     absolute magnetization    =    31.99 Bohr mag/cell
[tb_dev] Currently allocated     6.24E+00 Mbytes, locked:    0 /   8
[tb_pin] Currently allocated     0.00E+00 Mbytes, locked:    0 /   0

     iteration # 76     ecut=    40.00 Ry     beta= 0.40
     Davidson diagonalization with overlap

---- Real-time Memory Report at c_bands before calling an iterative solver
          3042 MiB given to the printing process from OS
         -1297 MiB allocation reported by mallinfo(arena+hblkhd)
         53178 MiB available memory on the node where the printing process lives
     GPU memory used/free/total (MiB): 3186 / 13094 / 16280
------------------
     ethr =  3.99E-09,  avg # of iterations =  5.6

     negative rho (up, down):  0.000E+00 2.074E-02

     total cpu time spent up to now is     1144.9 secs

     total energy              =   -1525.37318559 Ry
     estimated scf accuracy    <       0.00002280 Ry

     total magnetization       =    27.98 Bohr mag/cell
     absolute magnetization    =    31.98 Bohr mag/cell
[tb_dev] Currently allocated     6.24E+00 Mbytes, locked:    0 /   8
[tb_pin] Currently allocated     0.00E+00 Mbytes, locked:    0 /   0

     iteration # 77     ecut=    40.00 Ry     beta= 0.40
     Davidson diagonalization with overlap

---- Real-time Memory Report at c_bands before calling an iterative solver
          3042 MiB given to the printing process from OS
         -1297 MiB allocation reported by mallinfo(arena+hblkhd)
         53186 MiB available memory on the node where the printing process lives
     GPU memory used/free/total (MiB): 3186 / 13094 / 16280
------------------
     ethr =  3.99E-09,  avg # of iterations =  5.9

     negative rho (up, down):  0.000E+00 2.075E-02

     total cpu time spent up to now is     1160.8 secs

     total energy              =   -1525.37010210 Ry
     estimated scf accuracy    <       0.00004081 Ry

     total magnetization       =    27.98 Bohr mag/cell
     absolute magnetization    =    31.98 Bohr mag/cell
[tb_dev] Currently allocated     6.24E+00 Mbytes, locked:    0 /   8
[tb_pin] Currently allocated     0.00E+00 Mbytes, locked:    0 /   0

     iteration # 78     ecut=    40.00 Ry     beta= 0.40
     Davidson diagonalization with overlap

---- Real-time Memory Report at c_bands before calling an iterative solver
          3042 MiB given to the printing process from OS
         -1297 MiB allocation reported by mallinfo(arena+hblkhd)
         53188 MiB available memory on the node where the printing process lives
     GPU memory used/free/total (MiB): 3186 / 13094 / 16280
------------------
     c_bands:  3 eigenvalues not converged
     c_bands:  2 eigenvalues not converged
     c_bands:  1 eigenvalues not converged
     c_bands:  1 eigenvalues not converged
     c_bands:  2 eigenvalues not converged
     c_bands:  2 eigenvalues not converged
     c_bands:  3 eigenvalues not converged
     c_bands:  2 eigenvalues not converged
     c_bands:  1 eigenvalues not converged
     c_bands:  4 eigenvalues not converged
     c_bands:  2 eigenvalues not converged
     c_bands:  2 eigenvalues not converged
     c_bands:  1 eigenvalues not converged
     c_bands:  4 eigenvalues not converged
     c_bands:  2 eigenvalues not converged
     c_bands:  1 eigenvalues not converged
     c_bands:  3 eigenvalues not converged
     c_bands:  2 eigenvalues not converged
     c_bands:  2 eigenvalues not converged
     c_bands:  2 eigenvalues not converged
     c_bands:  2 eigenvalues not converged
     c_bands:  2 eigenvalues not converged
     c_bands:  2 eigenvalues not converged
     ethr =  3.99E-09,  avg # of iterations = 13.3

     negative rho (up, down):  0.000E+00 2.075E-02

     total cpu time spent up to now is     1190.9 secs

     total energy              =   -1525.37341766 Ry
     estimated scf accuracy    <       0.00012941 Ry

     total magnetization       =    27.97 Bohr mag/cell
     absolute magnetization    =    31.91 Bohr mag/cell
[tb_dev] Currently allocated     6.24E+00 Mbytes, locked:    0 /   8
[tb_pin] Currently allocated     0.00E+00 Mbytes, locked:    0 /   0

     iteration # 79     ecut=    40.00 Ry     beta= 0.40
     Davidson diagonalization with overlap

---- Real-time Memory Report at c_bands before calling an iterative solver
          3042 MiB given to the printing process from OS
         -1297 MiB allocation reported by mallinfo(arena+hblkhd)
         53191 MiB available memory on the node where the printing process lives
     GPU memory used/free/total (MiB): 3186 / 13094 / 16280
------------------
     c_bands:  1 eigenvalues not converged
     c_bands:  2 eigenvalues not converged
     c_bands:  1 eigenvalues not converged
     c_bands:  1 eigenvalues not converged
     c_bands:  2 eigenvalues not converged
     ethr =  3.99E-09,  avg # of iterations =  8.6

     negative rho (up, down):  0.000E+00 2.075E-02

     total cpu time spent up to now is     1210.8 secs

     total energy              =   -1525.37353440 Ry
     estimated scf accuracy    <       0.00012196 Ry

     total magnetization       =    27.97 Bohr mag/cell
     absolute magnetization    =    31.91 Bohr mag/cell
[tb_dev] Currently allocated     6.24E+00 Mbytes, locked:    0 /   8
[tb_pin] Currently allocated     0.00E+00 Mbytes, locked:    0 /   0

     iteration # 80     ecut=    40.00 Ry     beta= 0.40
     Davidson diagonalization with overlap

---- Real-time Memory Report at c_bands before calling an iterative solver
          3042 MiB given to the printing process from OS
         -1297 MiB allocation reported by mallinfo(arena+hblkhd)
         53192 MiB available memory on the node where the printing process lives
     GPU memory used/free/total (MiB): 3186 / 13094 / 16280
------------------
     c_bands:  1 eigenvalues not converged
     ethr =  3.99E-09,  avg # of iterations =  4.0

     negative rho (up, down):  0.000E+00 2.075E-02

     total cpu time spent up to now is     1223.6 secs

     total energy              =   -1525.37165483 Ry
     estimated scf accuracy    <       0.00011355 Ry

     total magnetization       =    27.97 Bohr mag/cell
     absolute magnetization    =    31.92 Bohr mag/cell

     End of self-consistent calculation

     convergence NOT achieved after  80 iterations: stopping

     Writing config to output data dir ./out/aiida.save/
 
     init_run     :     18.15s CPU      9.70s WALL (       1 calls)
     electrons    :   1400.83s CPU   1213.32s WALL (       1 calls)

     Called by init_run:
     wfcinit      :      5.79s CPU      7.15s WALL (       1 calls)
                                        7.15s GPU  (       1 calls)
     wfcinit:atom :      0.05s CPU      0.11s WALL (      96 calls)
                                        0.11s GPU  (      96 calls)
     wfcinit:wfcr :      3.04s CPU      3.65s WALL (      96 calls)
                                        3.65s GPU  (      96 calls)
     potinit      :      2.78s CPU      0.24s WALL (       1 calls)
     hinit0       :      7.12s CPU      1.52s WALL (       1 calls)

     Called by electrons:
     c_bands      :   1086.24s CPU   1058.81s WALL (      80 calls)
     sum_band     :    130.04s CPU    137.22s WALL (      80 calls)
     v_of_rho     :     46.10s CPU      4.14s WALL (      81 calls)
     v_h          :      6.99s CPU      0.61s WALL (      81 calls)
     v_xc         :     39.10s CPU      3.53s WALL (      81 calls)
     newd         :     58.56s CPU      5.56s WALL (      81 calls)
                                        5.56s GPU  (      81 calls)
     mix_rho      :     62.33s CPU      6.06s WALL (      80 calls)

     Called by c_bands:
     init_us_2    :     28.40s CPU     33.00s WALL (   15456 calls)
     init_us_2:gp :     28.08s CPU     32.71s WALL (   15456 calls)
     cegterg      :    952.04s CPU    937.04s WALL (    7695 calls)

     Called by sum_band:
     sum_band:wei :      0.66s CPU      0.67s WALL (      80 calls)
                                        0.66s GPU  (      80 calls)
     sum_band:loo :    120.60s CPU    127.67s WALL (      80 calls)
                                      127.67s GPU  (      80 calls)
     sum_band:buf :     46.38s CPU     47.30s WALL (    7680 calls)
                                       47.25s GPU  (    7680 calls)
     sum_band:ini :     12.22s CPU     14.60s WALL (    7680 calls)
                                       14.56s GPU  (    7680 calls)
     sum_band:cal :      0.30s CPU      4.90s WALL (    7680 calls)
                                        4.45s GPU  (    7680 calls)
     sum_band:bec :      1.97s CPU      2.13s WALL (    7680 calls)
                                        2.08s GPU  (    7680 calls)
     addusdens    :      4.68s CPU      4.78s WALL (      80 calls)
                                        4.78s GPU  (      80 calls)
     addusd:skk   :      0.03s CPU      0.04s WALL (     160 calls)
                                        0.03s GPU  (     160 calls)

     Called by *egterg:
     cdiaghg      :    336.87s CPU    361.01s WALL (   50701 calls)
                                      360.66s GPU  (   50701 calls)
     cegterg:over :     28.50s CPU     27.65s WALL (   43006 calls)
     cegterg:upda :     41.70s CPU     39.98s WALL (   43006 calls)
     cegterg:last :     29.23s CPU     28.02s WALL (   23158 calls)
     h_psi        :    461.67s CPU    431.13s WALL (   50797 calls)
                                      430.30s GPU  (   50797 calls)
     s_psi        :      9.46s CPU     26.42s WALL (   50797 calls)
                                       24.21s GPU  (   50797 calls)
     g_psi        :      0.34s CPU      3.03s WALL (   43006 calls)
                                        2.75s GPU  (   43006 calls)

     Called by h_psi:
     h_psi:calbec :      1.90s CPU     20.61s WALL (   50797 calls)
                                       20.29s GPU  (   50797 calls)
     vloc_psi     :    400.51s CPU    373.87s WALL (   50797 calls)
                                      373.55s GPU  (   50797 calls)
     add_vuspsi   :     15.48s CPU     30.99s WALL (   50797 calls)
                                       30.67s GPU  (   50797 calls)

     General routines
     calbec       :      1.64s CPU      1.58s WALL (   58477 calls)
     fft          :      2.69s CPU      0.62s WALL (    2023 calls)
                                        0.50s GPU  (    1861 calls)
     ffts         :      0.19s CPU      0.06s WALL (     322 calls)
                                        0.01s GPU  (     160 calls)
     fftw         :      7.80s CPU    292.43s WALL (  371104 calls)
                                      289.29s GPU  (  371104 calls)
     interpolate  :      6.56s CPU      0.58s WALL (     162 calls)
     davcio       :      0.52s CPU      1.32s WALL (     114 calls)
 
     Parallel routines
 
     PWSCF        :  23m42.21s CPU  20m25.30s WALL

 
   This run was terminated on:  19: 4:26  22Oct2023            

=------------------------------------------------------------------------------=
   JOB DONE.
=------------------------------------------------------------------------------=
