
     Program PWSCF v.7.2 starts on 23Oct2023 at 17:51:26 

     This program is part of the open-source Quantum ESPRESSO suite
     for quantum simulation of materials; please cite
         "P. Giannozzi et al., J. Phys.:Condens. Matter 21 395502 (2009);
         "P. Giannozzi et al., J. Phys.:Condens. Matter 29 465901 (2017);
         "P. Giannozzi et al., J. Chem. Phys. 152 154105 (2020);
          URL http://www.quantum-espresso.org", 
     in publications or presentations arising from this work. More details at
     http://www.quantum-espresso.org/quote

     Parallel version (MPI & OpenMP), running on      12 processor cores
     Number of MPI processes:                 1
     Threads/MPI process:                    12

     MPI processes distributed on     1 nodes
     41648 MiB available memory on the printing compute node when the environment starts
 
     Reading input from aiida.in

     Current dimensions of program PWSCF are:
     Max number of different atomic species (ntypx) = 10
     Max number of k-points (npk) =  40000
     Max angular momentum in pseudopotentials (lmaxx) =  4
     Message from routine setup:
     using ibrav=0 with symmetry is DISCOURAGED, use correct ibrav instead
 
     Subspace diagonalization in iterative solution of the eigenvalue problem:
     a serial algorithm will be used

 
     G-vector sticks info
     --------------------
     sticks:   dense  smooth     PW     G-vecs:    dense   smooth      PW
     Sum        7675    3853   1045               443559   157117   22419
 
     Using Slab Decomposition
 


     bravais-lattice index     =            0
     lattice parameter (alat)  =      15.2331  a.u.
     unit-cell volume          =    2499.4886 (a.u.)^3
     number of atoms/cell      =           10
     number of atomic types    =            3
     number of electrons       =        68.00
     number of Kohn-Sham states=           41
     kinetic-energy cutoff     =      60.0000  Ry
     charge density cutoff     =     480.0000  Ry
     scf convergence threshold =      2.0E-09
     mixing beta               =       0.2000
     number of iterations used =            8  plain     mixing
     Exchange-correlation= PBESOL
                           (   1   4  10   8   0   0   0)

     GPU acceleration is ACTIVE.


     GPU used by master process:

        Device Number: 0
        Device name: Tesla P100-PCIE-16GB
        Compute capability : 60
        Ratio of single to double precision performance  : 2
        Memory Clock Rate (KHz): 715000
        Memory Bus Width (bits): 4096
        Peak Memory Bandwidth (GB/s): 732.16

     celldm(1)=  15.233115  celldm(2)=   0.000000  celldm(3)=   0.000000
     celldm(4)=   0.000000  celldm(5)=   0.000000  celldm(6)=   0.000000

     crystal axes: (cart. coord. in units of alat)
               a(1) = (   0.000000   0.707107   0.707107 )  
               a(2) = (   0.707107   0.000000   0.707107 )  
               a(3) = (   0.707107   0.707107   0.000000 )  

     reciprocal axes: (cart. coord. in units 2 pi/alat)
               b(1) = ( -0.707107  0.707107  0.707107 )  
               b(2) = (  0.707107 -0.707107  0.707107 )  
               b(3) = (  0.707107  0.707107 -0.707107 )  


     PseudoPot. # 1 for Cl read from file:
     ./pseudo/cl_pbesol_v1.4.uspp.F.UPF
     MD5 check sum: ed6bbcf06f19043c0df9f6394706ff8f
     Pseudo is Ultrasoft + core correction, Zval =  7.0
     Generated by new atomic code, or converted to UPF format
     Using radial grid of  909 points,  6 beta functions with: 
                l(1) =   0
                l(2) =   0
                l(3) =   1
                l(4) =   1
                l(5) =   2
                l(6) =   2
     Q(r) pseudized with  8 coefficients,  rinner =    1.300   1.300   1.300
                                                       1.300   1.300

     PseudoPot. # 2 for Co read from file:
     ./pseudo/co_pbesol_v1.2.uspp.F.UPF
     MD5 check sum: 3b4cd4e7cc7df4da9fdede0fd33e2193
     Pseudo is Ultrasoft + core correction, Zval = 17.0
     Generated by new atomic code, or converted to UPF format
     Using radial grid of  863 points,  6 beta functions with: 
                l(1) =   0
                l(2) =   0
                l(3) =   1
                l(4) =   1
                l(5) =   2
                l(6) =   2
     Q(r) pseudized with  8 coefficients,  rinner =    1.200   1.200   1.200
                                                       1.200   1.200

     PseudoPot. # 3 for N  read from file:
     ./pseudo/N.pbesol-theos.UPF
     MD5 check sum: 1b64827339d390a5a22afef3ff345c9d
     Pseudo is Ultrasoft + core correction, Zval =  5.0
     Generated using "atomic" code by A. Dal Corso  v.5.1
     Using radial grid of 1085 points,  4 beta functions with: 
                l(1) =   0
                l(2) =   0
                l(3) =   1
                l(4) =   1
     Q(r) pseudized with 0 coefficients 


     atomic species   valence    mass     pseudopotential
        Cl             7.00    35.45300     Cl( 1.00)
        Co            17.00    58.93319     Co( 1.00)
        N              5.00    14.00670     N ( 1.00)

     Starting magnetic structure 
     atomic species   magnetization
        Cl           0.100
        Co           0.294
        N            0.100

     48 Sym. Ops., with inversion, found


                                    s                        frac. trans.

      isym =  1     identity                                     

 cryst.   s( 1) = (     1          0          0      )
                  (     0          1          0      )
                  (     0          0          1      )

 cart.    s( 1) = (  1.0000000 -0.0000000  0.0000000 )
                  ( -0.0000000  1.0000000  0.0000000 )
                  ( -0.0000000  0.0000000  1.0000000 )


      isym =  2     180 deg rotation - cart. axis [0,0,1]        

 cryst.   s( 2) = (     0          1         -1      )
                  (     1          0         -1      )
                  (     0          0         -1      )

 cart.    s( 2) = ( -1.0000000  0.0000000  0.0000000 )
                  (  0.0000000 -1.0000000  0.0000000 )
                  (  0.0000000 -0.0000000  1.0000000 )


      isym =  3     180 deg rotation - cart. axis [0,1,0]        

 cryst.   s( 3) = (     0         -1          1      )
                  (     0         -1          0      )
                  (     1         -1          0      )

 cart.    s( 3) = ( -1.0000000 -0.0000000 -0.0000000 )
                  (  0.0000000  1.0000000 -0.0000000 )
                  (  0.0000000  0.0000000 -1.0000000 )


      isym =  4     180 deg rotation - cart. axis [1,0,0]        

 cryst.   s( 4) = (    -1          0          0      )
                  (    -1          0          1      )
                  (    -1          1          0      )

 cart.    s( 4) = (  1.0000000  0.0000000 -0.0000000 )
                  ( -0.0000000 -1.0000000 -0.0000000 )
                  ( -0.0000000 -0.0000000 -1.0000000 )


      isym =  5     180 deg rotation - cart. axis [1,1,0]        

 cryst.   s( 5) = (    -1          0          1      )
                  (     0         -1          1      )
                  (     0          0          1      )

 cart.    s( 5) = ( -0.0000000  1.0000000 -0.0000000 )
                  (  1.0000000 -0.0000000 -0.0000000 )
                  (  0.0000000 -0.0000000 -1.0000000 )


      isym =  6     180 deg rotation - cart. axis [1,-1,0]       

 cryst.   s( 6) = (     0         -1          0      )
                  (    -1          0          0      )
                  (     0          0         -1      )

 cart.    s( 6) = (  0.0000000 -1.0000000 -0.0000000 )
                  ( -1.0000000  0.0000000 -0.0000000 )
                  ( -0.0000000  0.0000000 -1.0000000 )


      isym =  7      90 deg rotation - cart. axis [0,0,-1]       

 cryst.   s( 7) = (     0          1          0      )
                  (     0          1         -1      )
                  (    -1          1          0      )

 cart.    s( 7) = (  0.0000000  1.0000000  0.0000000 )
                  ( -1.0000000 -0.0000000  0.0000000 )
                  ( -0.0000000 -0.0000000  1.0000000 )


      isym =  8      90 deg rotation - cart. axis [0,0,1]        

 cryst.   s( 8) = (     1          0         -1      )
                  (     1          0          0      )
                  (     1         -1          0      )

 cart.    s( 8) = ( -0.0000000 -1.0000000  0.0000000 )
                  (  1.0000000  0.0000000  0.0000000 )
                  (  0.0000000  0.0000000  1.0000000 )


      isym =  9     180 deg rotation - cart. axis [1,0,1]        

 cryst.   s( 9) = (    -1          1          0      )
                  (     0          1          0      )
                  (     0          1         -1      )

 cart.    s( 9) = (  0.0000000  0.0000000  1.0000000 )
                  (  0.0000000 -1.0000000 -0.0000000 )
                  (  1.0000000 -0.0000000 -0.0000000 )


      isym = 10     180 deg rotation - cart. axis [-1,0,1]       

 cryst.   s(10) = (     0          0         -1      )
                  (     0         -1          0      )
                  (    -1          0          0      )

 cart.    s(10) = ( -0.0000000  0.0000000 -1.0000000 )
                  ( -0.0000000 -1.0000000  0.0000000 )
                  ( -1.0000000 -0.0000000  0.0000000 )


      isym = 11      90 deg rotation - cart. axis [0,1,0]        

 cryst.   s(11) = (     0          0          1      )
                  (    -1          0          1      )
                  (     0         -1          1      )

 cart.    s(11) = ( -0.0000000 -0.0000000  1.0000000 )
                  ( -0.0000000  1.0000000 -0.0000000 )
                  ( -1.0000000  0.0000000 -0.0000000 )


      isym = 12      90 deg rotation - cart. axis [0,-1,0]       

 cryst.   s(12) = (     1         -1          0      )
                  (     1          0         -1      )
                  (     1          0          0      )

 cart.    s(12) = (  0.0000000 -0.0000000 -1.0000000 )
                  (  0.0000000  1.0000000  0.0000000 )
                  (  1.0000000  0.0000000  0.0000000 )


      isym = 13     180 deg rotation - cart. axis [0,1,1]        

 cryst.   s(13) = (     1          0          0      )
                  (     1         -1          0      )
                  (     1          0         -1      )

 cart.    s(13) = ( -1.0000000  0.0000000 -0.0000000 )
                  (  0.0000000  0.0000000  1.0000000 )
                  (  0.0000000  1.0000000  0.0000000 )


      isym = 14     180 deg rotation - cart. axis [0,1,-1]       

 cryst.   s(14) = (    -1          0          0      )
                  (     0          0         -1      )
                  (     0         -1          0      )

 cart.    s(14) = ( -1.0000000 -0.0000000  0.0000000 )
                  (  0.0000000 -0.0000000 -1.0000000 )
                  (  0.0000000 -1.0000000 -0.0000000 )


      isym = 15      90 deg rotation - cart. axis [-1,0,0]       

 cryst.   s(15) = (     0         -1          1      )
                  (     0          0          1      )
                  (    -1          0          1      )

 cart.    s(15) = (  1.0000000 -0.0000000 -0.0000000 )
                  ( -0.0000000 -0.0000000  1.0000000 )
                  ( -0.0000000 -1.0000000  0.0000000 )


      isym = 16      90 deg rotation - cart. axis [1,0,0]        

 cryst.   s(16) = (     0          1         -1      )
                  (    -1          1          0      )
                  (     0          1          0      )

 cart.    s(16) = (  1.0000000  0.0000000  0.0000000 )
                  ( -0.0000000  0.0000000 -1.0000000 )
                  ( -0.0000000  1.0000000 -0.0000000 )


      isym = 17     120 deg rotation - cart. axis [-1,-1,-1]     

 cryst.   s(17) = (     0          0          1      )
                  (     1          0          0      )
                  (     0          1          0      )

 cart.    s(17) = (  0.0000000  1.0000000 -0.0000000 )
                  (  0.0000000 -0.0000000  1.0000000 )
                  (  1.0000000 -0.0000000  0.0000000 )


      isym = 18     120 deg rotation - cart. axis [-1,1,1]       

 cryst.   s(18) = (     1         -1          0      )
                  (     0         -1          1      )
                  (     0         -1          0      )

 cart.    s(18) = ( -0.0000000 -1.0000000 -0.0000000 )
                  ( -0.0000000  0.0000000  1.0000000 )
                  ( -1.0000000  0.0000000  0.0000000 )


      isym = 19     120 deg rotation - cart. axis [1,1,-1]       

 cryst.   s(19) = (    -1          1          0      )
                  (    -1          0          0      )
                  (    -1          0          1      )

 cart.    s(19) = ( -0.0000000  1.0000000  0.0000000 )
                  ( -0.0000000 -0.0000000 -1.0000000 )
                  ( -1.0000000 -0.0000000 -0.0000000 )


      isym = 20     120 deg rotation - cart. axis [1,-1,1]       

 cryst.   s(20) = (     0          0         -1      )
                  (     0          1         -1      )
                  (     1          0         -1      )

 cart.    s(20) = (  0.0000000 -1.0000000  0.0000000 )
                  (  0.0000000  0.0000000 -1.0000000 )
                  (  1.0000000  0.0000000 -0.0000000 )


      isym = 21     120 deg rotation - cart. axis [1,1,1]        

 cryst.   s(21) = (     0          1          0      )
                  (     0          0          1      )
                  (     1          0          0      )

 cart.    s(21) = ( -0.0000000  0.0000000  1.0000000 )
                  (  1.0000000  0.0000000 -0.0000000 )
                  (  0.0000000  1.0000000 -0.0000000 )


      isym = 22     120 deg rotation - cart. axis [-1,1,-1]      

 cryst.   s(22) = (    -1          0          1      )
                  (    -1          1          0      )
                  (    -1          0          0      )

 cart.    s(22) = (  0.0000000 -0.0000000  1.0000000 )
                  ( -1.0000000 -0.0000000 -0.0000000 )
                  ( -0.0000000 -1.0000000 -0.0000000 )


      isym = 23     120 deg rotation - cart. axis [1,-1,-1]      

 cryst.   s(23) = (     1          0         -1      )
                  (     0          0         -1      )
                  (     0          1         -1      )

 cart.    s(23) = (  0.0000000  0.0000000 -1.0000000 )
                  ( -1.0000000  0.0000000  0.0000000 )
                  ( -0.0000000  1.0000000  0.0000000 )


      isym = 24     120 deg rotation - cart. axis [-1,-1,1]      

 cryst.   s(24) = (     0         -1          0      )
                  (     1         -1          0      )
                  (     0         -1          1      )

 cart.    s(24) = ( -0.0000000 -0.0000000 -1.0000000 )
                  (  1.0000000 -0.0000000  0.0000000 )
                  (  0.0000000 -1.0000000  0.0000000 )


      isym = 25     inversion                                    

 cryst.   s(25) = (    -1          0          0      )
                  (     0         -1          0      )
                  (     0          0         -1      )

 cart.    s(25) = ( -1.0000000  0.0000000 -0.0000000 )
                  (  0.0000000 -1.0000000 -0.0000000 )
                  (  0.0000000 -0.0000000 -1.0000000 )


      isym = 26     inv. 180 deg rotation - cart. axis [0,0,1]   

 cryst.   s(26) = (     0         -1          1      )
                  (    -1          0          1      )
                  (     0          0          1      )

 cart.    s(26) = (  1.0000000 -0.0000000 -0.0000000 )
                  ( -0.0000000  1.0000000 -0.0000000 )
                  ( -0.0000000  0.0000000 -1.0000000 )


      isym = 27     inv. 180 deg rotation - cart. axis [0,1,0]   

 cryst.   s(27) = (     0          1         -1      )
                  (     0          1          0      )
                  (    -1          1          0      )

 cart.    s(27) = (  1.0000000  0.0000000  0.0000000 )
                  ( -0.0000000 -1.0000000  0.0000000 )
                  ( -0.0000000 -0.0000000  1.0000000 )


      isym = 28     inv. 180 deg rotation - cart. axis [1,0,0]   

 cryst.   s(28) = (     1          0          0      )
                  (     1          0         -1      )
                  (     1         -1          0      )

 cart.    s(28) = ( -1.0000000 -0.0000000  0.0000000 )
                  (  0.0000000  1.0000000  0.0000000 )
                  (  0.0000000  0.0000000  1.0000000 )


      isym = 29     inv. 180 deg rotation - cart. axis [1,1,0]   

 cryst.   s(29) = (     1          0         -1      )
                  (     0          1         -1      )
                  (     0          0         -1      )

 cart.    s(29) = (  0.0000000 -1.0000000  0.0000000 )
                  ( -1.0000000  0.0000000  0.0000000 )
                  ( -0.0000000  0.0000000  1.0000000 )


      isym = 30     inv. 180 deg rotation - cart. axis [1,-1,0]  

 cryst.   s(30) = (     0          1          0      )
                  (     1          0          0      )
                  (     0          0          1      )

 cart.    s(30) = ( -0.0000000  1.0000000  0.0000000 )
                  (  1.0000000 -0.0000000  0.0000000 )
                  (  0.0000000 -0.0000000  1.0000000 )


      isym = 31     inv.  90 deg rotation - cart. axis [0,0,-1]  

 cryst.   s(31) = (     0         -1          0      )
                  (     0         -1          1      )
                  (     1         -1          0      )

 cart.    s(31) = ( -0.0000000 -1.0000000 -0.0000000 )
                  (  1.0000000  0.0000000 -0.0000000 )
                  (  0.0000000  0.0000000 -1.0000000 )


      isym = 32     inv.  90 deg rotation - cart. axis [0,0,1]   

 cryst.   s(32) = (    -1          0          1      )
                  (    -1          0          0      )
                  (    -1          1          0      )

 cart.    s(32) = (  0.0000000  1.0000000 -0.0000000 )
                  ( -1.0000000 -0.0000000 -0.0000000 )
                  ( -0.0000000 -0.0000000 -1.0000000 )


      isym = 33     inv. 180 deg rotation - cart. axis [1,0,1]   

 cryst.   s(33) = (     1         -1          0      )
                  (     0         -1          0      )
                  (     0         -1          1      )

 cart.    s(33) = ( -0.0000000 -0.0000000 -1.0000000 )
                  ( -0.0000000  1.0000000  0.0000000 )
                  ( -1.0000000  0.0000000  0.0000000 )


      isym = 34     inv. 180 deg rotation - cart. axis [-1,0,1]  

 cryst.   s(34) = (     0          0          1      )
                  (     0          1          0      )
                  (     1          0          0      )

 cart.    s(34) = (  0.0000000 -0.0000000  1.0000000 )
                  (  0.0000000  1.0000000 -0.0000000 )
                  (  1.0000000  0.0000000 -0.0000000 )


      isym = 35     inv.  90 deg rotation - cart. axis [0,1,0]   

 cryst.   s(35) = (     0          0         -1      )
                  (     1          0         -1      )
                  (     0          1         -1      )

 cart.    s(35) = (  0.0000000  0.0000000 -1.0000000 )
                  (  0.0000000 -1.0000000  0.0000000 )
                  (  1.0000000 -0.0000000  0.0000000 )


      isym = 36     inv.  90 deg rotation - cart. axis [0,-1,0]  

 cryst.   s(36) = (    -1          1          0      )
                  (    -1          0          1      )
                  (    -1          0          0      )

 cart.    s(36) = ( -0.0000000  0.0000000  1.0000000 )
                  ( -0.0000000 -1.0000000 -0.0000000 )
                  ( -1.0000000 -0.0000000 -0.0000000 )


      isym = 37     inv. 180 deg rotation - cart. axis [0,1,1]   

 cryst.   s(37) = (    -1          0          0      )
                  (    -1          1          0      )
                  (    -1          0          1      )

 cart.    s(37) = (  1.0000000 -0.0000000  0.0000000 )
                  ( -0.0000000 -0.0000000 -1.0000000 )
                  ( -0.0000000 -1.0000000 -0.0000000 )


      isym = 38     inv. 180 deg rotation - cart. axis [0,1,-1]  

 cryst.   s(38) = (     1          0          0      )
                  (     0          0          1      )
                  (     0          1          0      )

 cart.    s(38) = (  1.0000000  0.0000000 -0.0000000 )
                  ( -0.0000000  0.0000000  1.0000000 )
                  ( -0.0000000  1.0000000  0.0000000 )


      isym = 39     inv.  90 deg rotation - cart. axis [-1,0,0]  

 cryst.   s(39) = (     0          1         -1      )
                  (     0          0         -1      )
                  (     1          0         -1      )

 cart.    s(39) = ( -1.0000000  0.0000000  0.0000000 )
                  (  0.0000000  0.0000000 -1.0000000 )
                  (  0.0000000  1.0000000 -0.0000000 )


      isym = 40     inv.  90 deg rotation - cart. axis [1,0,0]   

 cryst.   s(40) = (     0         -1          1      )
                  (     1         -1          0      )
                  (     0         -1          0      )

 cart.    s(40) = ( -1.0000000 -0.0000000 -0.0000000 )
                  (  0.0000000 -0.0000000  1.0000000 )
                  (  0.0000000 -1.0000000  0.0000000 )


      isym = 41     inv. 120 deg rotation - cart. axis [-1,-1,-1]

 cryst.   s(41) = (     0          0         -1      )
                  (    -1          0          0      )
                  (     0         -1          0      )

 cart.    s(41) = ( -0.0000000 -1.0000000  0.0000000 )
                  ( -0.0000000  0.0000000 -1.0000000 )
                  ( -1.0000000  0.0000000 -0.0000000 )


      isym = 42     inv. 120 deg rotation - cart. axis [-1,1,1]  

 cryst.   s(42) = (    -1          1          0      )
                  (     0          1         -1      )
                  (     0          1          0      )

 cart.    s(42) = (  0.0000000  1.0000000  0.0000000 )
                  (  0.0000000 -0.0000000 -1.0000000 )
                  (  1.0000000 -0.0000000 -0.0000000 )


      isym = 43     inv. 120 deg rotation - cart. axis [1,1,-1]  

 cryst.   s(43) = (     1         -1          0      )
                  (     1          0          0      )
                  (     1          0         -1      )

 cart.    s(43) = (  0.0000000 -1.0000000 -0.0000000 )
                  (  0.0000000  0.0000000  1.0000000 )
                  (  1.0000000  0.0000000  0.0000000 )


      isym = 44     inv. 120 deg rotation - cart. axis [1,-1,1]  

 cryst.   s(44) = (     0          0          1      )
                  (     0         -1          1      )
                  (    -1          0          1      )

 cart.    s(44) = ( -0.0000000  1.0000000 -0.0000000 )
                  ( -0.0000000 -0.0000000  1.0000000 )
                  ( -1.0000000 -0.0000000  0.0000000 )


      isym = 45     inv. 120 deg rotation - cart. axis [1,1,1]   

 cryst.   s(45) = (     0         -1          0      )
                  (     0          0         -1      )
                  (    -1          0          0      )

 cart.    s(45) = (  0.0000000 -0.0000000 -1.0000000 )
                  ( -1.0000000 -0.0000000  0.0000000 )
                  ( -0.0000000 -1.0000000  0.0000000 )


      isym = 46     inv. 120 deg rotation - cart. axis [-1,1,-1] 

 cryst.   s(46) = (     1          0         -1      )
                  (     1         -1          0      )
                  (     1          0          0      )

 cart.    s(46) = ( -0.0000000  0.0000000 -1.0000000 )
                  (  1.0000000  0.0000000  0.0000000 )
                  (  0.0000000  1.0000000  0.0000000 )


      isym = 47     inv. 120 deg rotation - cart. axis [1,-1,-1] 

 cryst.   s(47) = (    -1          0          1      )
                  (     0          0          1      )
                  (     0         -1          1      )

 cart.    s(47) = ( -0.0000000 -0.0000000  1.0000000 )
                  (  1.0000000 -0.0000000 -0.0000000 )
                  (  0.0000000 -1.0000000 -0.0000000 )


      isym = 48     inv. 120 deg rotation - cart. axis [-1,-1,1] 

 cryst.   s(48) = (     0          1          0      )
                  (    -1          1          0      )
                  (     0          1         -1      )

 cart.    s(48) = (  0.0000000  0.0000000  1.0000000 )
                  ( -1.0000000  0.0000000 -0.0000000 )
                  ( -0.0000000  1.0000000 -0.0000000 )


   Cartesian axes

     site n.     atom                  positions (alat units)
         1           Co  tau(   1) = (   0.0000000   0.0000000   0.0000000  )
         2           N   tau(   2) = (   0.0000000   0.0000000   1.1455130  )
         3           N   tau(   3) = (   0.7071068   0.9758074   0.0000000  )
         4           N   tau(   4) = (   0.2687006  -0.0000000  -0.0000000  )
         5           N   tau(   5) = (   0.7071068   0.0000000   0.9758074  )
         6           N   tau(   6) = (   0.7071068   0.4384062  -0.0000000  )
         7           N   tau(   7) = (   1.1455130  -0.0000000  -0.0000000  )
         8           Cl  tau(   8) = (   0.7071068   0.0000000   0.0000000  )
         9           Cl  tau(   9) = (   0.3535534   0.3535534   1.0606602  )
        10           Cl  tau(  10) = (   0.3535534   1.0606602   1.0606602  )

   Crystallographic axes

     site n.     atom                  positions (cryst. coord.)
         1           Co  tau(   1) = (  0.0000000  0.0000000  0.0000000  )
         2           N   tau(   2) = (  0.8100000  0.8100000 -0.8100000  )
         3           N   tau(   3) = (  0.1900000 -0.1900000  1.1900000  )
         4           N   tau(   4) = ( -0.1900000  0.1900000  0.1900000  )
         5           N   tau(   5) = (  0.1900000  1.1900000 -0.1900000  )
         6           N   tau(   6) = ( -0.1900000  0.1900000  0.8100000  )
         7           N   tau(   7) = ( -0.8100000  0.8100000  0.8100000  )
         8           Cl  tau(   8) = ( -0.5000000  0.5000000  0.5000000  )
         9           Cl  tau(   9) = (  0.7500000  0.7500000 -0.2500000  )
        10           Cl  tau(  10) = (  1.2500000  0.2500000  0.2500000  )

     number of k points=    20  Marzari-Vanderbilt smearing, width (Ry)=  0.0100
                       cart. coord. in units 2pi/alat
        k(    1) = (   0.0000000   0.0000000   0.0000000), wk =   0.0029155
        k(    2) = (   0.1010153   0.1010153  -0.1010153), wk =   0.0233236
        k(    3) = (   0.2020305   0.2020305  -0.2020305), wk =   0.0233236
        k(    4) = (   0.3030458   0.3030458  -0.3030458), wk =   0.0233236
        k(    5) = (   0.2020305  -0.0000000   0.0000000), wk =   0.0174927
        k(    6) = (   0.3030458   0.1010153  -0.1010153), wk =   0.0699708
        k(    7) = (   0.4040610   0.2020305  -0.2020305), wk =   0.0699708
        k(    8) = (  -0.2020305  -0.4040610   0.4040610), wk =   0.0699708
        k(    9) = (  -0.1010153  -0.3030458   0.3030458), wk =   0.0699708
        k(   10) = (  -0.0000000  -0.2020305   0.2020305), wk =   0.0349854
        k(   11) = (   0.4040610  -0.0000000   0.0000000), wk =   0.0174927
        k(   12) = (   0.5050763   0.1010153  -0.1010153), wk =   0.0699708
        k(   13) = (  -0.1010153  -0.5050763   0.5050763), wk =   0.0699708
        k(   14) = (   0.0000000  -0.4040610   0.4040610), wk =   0.0349854
        k(   15) = (   0.6060915  -0.0000000   0.0000000), wk =   0.0174927
        k(   16) = (  -0.0000000  -0.6060915   0.6060915), wk =   0.0349854
        k(   17) = (   0.4040610   0.2020305   0.0000000), wk =   0.0699708
        k(   18) = (  -0.2020305  -0.4040610   0.6060915), wk =   0.1399417
        k(   19) = (  -0.1010153  -0.5050763   0.7071068), wk =   0.0699708
        k(   20) = (  -0.0000000  -0.4040610   0.6060915), wk =   0.0699708

                       cryst. coord.
        k(    1) = (   0.0000000   0.0000000   0.0000000), wk =   0.0029155
        k(    2) = (   0.0000000   0.0000000   0.1428571), wk =   0.0233236
        k(    3) = (   0.0000000   0.0000000   0.2857143), wk =   0.0233236
        k(    4) = (  -0.0000000  -0.0000000   0.4285714), wk =   0.0233236
        k(    5) = (  -0.0000000   0.1428571   0.1428571), wk =   0.0174927
        k(    6) = (  -0.0000000   0.1428571   0.2857143), wk =   0.0699708
        k(    7) = (  -0.0000000   0.1428571   0.4285714), wk =   0.0699708
        k(    8) = (  -0.0000000   0.1428571  -0.4285714), wk =   0.0699708
        k(    9) = (   0.0000000   0.1428571  -0.2857143), wk =   0.0699708
        k(   10) = (  -0.0000000   0.1428571  -0.1428571), wk =   0.0349854
        k(   11) = (  -0.0000000   0.2857143   0.2857143), wk =   0.0174927
        k(   12) = (  -0.0000000   0.2857143   0.4285714), wk =   0.0699708
        k(   13) = (  -0.0000000   0.2857143  -0.4285714), wk =   0.0699708
        k(   14) = (  -0.0000000   0.2857143  -0.2857143), wk =   0.0349854
        k(   15) = (   0.0000000   0.4285714   0.4285714), wk =   0.0174927
        k(   16) = (   0.0000000   0.4285714  -0.4285714), wk =   0.0349854
        k(   17) = (   0.1428571   0.2857143   0.4285714), wk =   0.0699708
        k(   18) = (   0.1428571   0.2857143  -0.4285714), wk =   0.1399417
        k(   19) = (   0.1428571   0.4285714  -0.4285714), wk =   0.0699708
        k(   20) = (   0.1428571   0.4285714  -0.2857143), wk =   0.0699708

     Dense  grid:   443559 G-vectors     FFT dimensions: ( 108, 108, 108)

     Smooth grid:   157117 G-vectors     FFT dimensions: (  75,  75,  75)

     Dynamical RAM for                 wfc:      12.27 MB

     Dynamical RAM for     wfc (w. buffer):     503.18 MB

     Dynamical RAM for           str. fact:      20.30 MB

     Dynamical RAM for           local pot:       0.00 MB

     Dynamical RAM for          nlocal pot:      35.92 MB

     Dynamical RAM for                qrad:       5.27 MB

     Dynamical RAM for          rho,v,vnew:      98.27 MB

     Dynamical RAM for               rhoin:      32.76 MB

     Dynamical RAM for            rho*nmix:     216.58 MB

     Dynamical RAM for           G-vectors:      26.58 MB

     Dynamical RAM for          h,s,v(r/c):       0.31 MB

     Dynamical RAM for          <psi|beta>:       0.08 MB

     Dynamical RAM for                 psi:      24.55 MB

     Dynamical RAM for                hpsi:      24.55 MB

     Dynamical RAM for                spsi:      24.55 MB

     Dynamical RAM for      wfcinit/wfcrot:      24.58 MB

     Dynamical RAM for           addusdens:    1306.26 MB

     Dynamical RAM for          addusforce:    1373.99 MB

     Dynamical RAM for         addusstress:    1370.56 MB

     Estimated static dynamical RAM per process >     807.02 MB

     Estimated max dynamical RAM per process >       2.34 GB

     Atomic positions and unit cell read from directory:
     ./out/aiida.save/
 

     Check: negative core charge=   -0.000002
     Generating pointlists ...
     new r_m :   0.1808 (alat units)  2.7548 (a.u.) for type    1
     new r_m :   0.1108 (alat units)  1.6884 (a.u.) for type    2
     new r_m :   0.1108 (alat units)  1.6884 (a.u.) for type    3

     The initial density is read from file :
     ./out/aiida.save/charge-density


     negative rho (up, down):  2.302E-02 2.240E-02
     Starting wfcs from file

     total cpu time spent up to now is        3.7 secs

     per-process dynamical memory:   653.6 Mb

     Self-consistent Calculation
[tb_dev] Currently allocated     7.63E-05 Mbytes, locked:    0 /   2
[tb_pin] Currently allocated     0.00E+00 Mbytes, locked:    0 /   0

     iteration #  1     ecut=    60.00 Ry     beta= 0.20
     Davidson diagonalization with overlap

---- Real-time Memory Report at c_bands before calling an iterative solver
           779 MiB given to the printing process from OS
           669 MiB allocation reported by mallinfo(arena+hblkhd)
         40704 MiB available memory on the node where the printing process lives
     GPU memory used/free/total (MiB): 1084 / 15196 / 16280
------------------
     ethr =  1.00E-05,  avg # of iterations =  5.9

     negative rho (up, down):  2.306E-02 2.239E-02

     total cpu time spent up to now is       10.0 secs

     total energy              =    -516.23939724 Ry
     estimated scf accuracy    <       0.05099764 Ry

     total magnetization       =    14.44 Bohr mag/cell
     absolute magnetization    =    18.10 Bohr mag/cell
[tb_dev] Currently allocated     8.23E+00 Mbytes, locked:    0 /   8
[tb_pin] Currently allocated     0.00E+00 Mbytes, locked:    0 /   0

     iteration #  2     ecut=    60.00 Ry     beta= 0.20
     Davidson diagonalization with overlap

---- Real-time Memory Report at c_bands before calling an iterative solver
          1761 MiB given to the printing process from OS
          1534 MiB allocation reported by mallinfo(arena+hblkhd)
         38929 MiB available memory on the node where the printing process lives
     GPU memory used/free/total (MiB): 3752 / 12528 / 16280
------------------
     ethr =  7.50E-05,  avg # of iterations =  6.0

     negative rho (up, down):  2.303E-02 2.239E-02

     total cpu time spent up to now is       15.0 secs

     total energy              =    -516.23714439 Ry
     estimated scf accuracy    <       2.12591478 Ry

     total magnetization       =    13.48 Bohr mag/cell
     absolute magnetization    =    18.57 Bohr mag/cell
[tb_dev] Currently allocated     8.23E+00 Mbytes, locked:    0 /   8
[tb_pin] Currently allocated     0.00E+00 Mbytes, locked:    0 /   0

     iteration #  3     ecut=    60.00 Ry     beta= 0.20
     Davidson diagonalization with overlap

---- Real-time Memory Report at c_bands before calling an iterative solver
          1771 MiB given to the printing process from OS
          1543 MiB allocation reported by mallinfo(arena+hblkhd)
         38923 MiB available memory on the node where the printing process lives
     GPU memory used/free/total (MiB): 3752 / 12528 / 16280
------------------
     ethr =  7.50E-05,  avg # of iterations =  4.8

     negative rho (up, down):  2.302E-02 2.239E-02

     total cpu time spent up to now is       19.3 secs

     total energy              =    -516.22991772 Ry
     estimated scf accuracy    <       1.10592670 Ry

     total magnetization       =    14.03 Bohr mag/cell
     absolute magnetization    =    18.83 Bohr mag/cell
[tb_dev] Currently allocated     8.23E+00 Mbytes, locked:    0 /   8
[tb_pin] Currently allocated     0.00E+00 Mbytes, locked:    0 /   0

     iteration #  4     ecut=    60.00 Ry     beta= 0.20
     Davidson diagonalization with overlap

---- Real-time Memory Report at c_bands before calling an iterative solver
          1781 MiB given to the printing process from OS
          1553 MiB allocation reported by mallinfo(arena+hblkhd)
         38914 MiB available memory on the node where the printing process lives
     GPU memory used/free/total (MiB): 3752 / 12528 / 16280
------------------
     ethr =  7.50E-05,  avg # of iterations =  1.2

     negative rho (up, down):  2.304E-02 2.239E-02

     total cpu time spent up to now is       22.9 secs

     total energy              =    -516.23964707 Ry
     estimated scf accuracy    <       1.18316709 Ry

     total magnetization       =    14.48 Bohr mag/cell
     absolute magnetization    =    19.03 Bohr mag/cell
[tb_dev] Currently allocated     8.23E+00 Mbytes, locked:    0 /   8
[tb_pin] Currently allocated     0.00E+00 Mbytes, locked:    0 /   0

     iteration #  5     ecut=    60.00 Ry     beta= 0.20
     Davidson diagonalization with overlap

---- Real-time Memory Report at c_bands before calling an iterative solver
          1790 MiB given to the printing process from OS
          1562 MiB allocation reported by mallinfo(arena+hblkhd)
         38905 MiB available memory on the node where the printing process lives
     GPU memory used/free/total (MiB): 3752 / 12528 / 16280
------------------
     ethr =  7.50E-05,  avg # of iterations =  1.1

     negative rho (up, down):  2.303E-02 2.238E-02

     total cpu time spent up to now is       26.4 secs

     total energy              =    -516.24331556 Ry
     estimated scf accuracy    <       0.92449202 Ry

     total magnetization       =    14.06 Bohr mag/cell
     absolute magnetization    =    18.73 Bohr mag/cell
[tb_dev] Currently allocated     8.23E+00 Mbytes, locked:    0 /   8
[tb_pin] Currently allocated     0.00E+00 Mbytes, locked:    0 /   0

     iteration #  6     ecut=    60.00 Ry     beta= 0.20
     Davidson diagonalization with overlap

---- Real-time Memory Report at c_bands before calling an iterative solver
          1800 MiB given to the printing process from OS
          1572 MiB allocation reported by mallinfo(arena+hblkhd)
         38894 MiB available memory on the node where the printing process lives
     GPU memory used/free/total (MiB): 3752 / 12528 / 16280
------------------
     ethr =  7.50E-05,  avg # of iterations =  1.0

     negative rho (up, down):  2.301E-02 2.240E-02

     total cpu time spent up to now is       30.0 secs

     total energy              =    -516.22884372 Ry
     estimated scf accuracy    <       1.17630839 Ry

     total magnetization       =    14.51 Bohr mag/cell
     absolute magnetization    =    18.97 Bohr mag/cell
[tb_dev] Currently allocated     8.23E+00 Mbytes, locked:    0 /   8
[tb_pin] Currently allocated     0.00E+00 Mbytes, locked:    0 /   0

     iteration #  7     ecut=    60.00 Ry     beta= 0.20
     Davidson diagonalization with overlap

---- Real-time Memory Report at c_bands before calling an iterative solver
          1810 MiB given to the printing process from OS
          1582 MiB allocation reported by mallinfo(arena+hblkhd)
         38886 MiB available memory on the node where the printing process lives
     GPU memory used/free/total (MiB): 3752 / 12528 / 16280
------------------
     ethr =  7.50E-05,  avg # of iterations =  1.0

     negative rho (up, down):  2.302E-02 2.239E-02

     total cpu time spent up to now is       33.5 secs

     total energy              =    -516.23290901 Ry
     estimated scf accuracy    <       1.13678887 Ry

     total magnetization       =    14.48 Bohr mag/cell
     absolute magnetization    =    19.03 Bohr mag/cell
[tb_dev] Currently allocated     8.23E+00 Mbytes, locked:    0 /   8
[tb_pin] Currently allocated     0.00E+00 Mbytes, locked:    0 /   0

     iteration #  8     ecut=    60.00 Ry     beta= 0.20
     Davidson diagonalization with overlap

---- Real-time Memory Report at c_bands before calling an iterative solver
          1819 MiB given to the printing process from OS
          1591 MiB allocation reported by mallinfo(arena+hblkhd)
         38876 MiB available memory on the node where the printing process lives
     GPU memory used/free/total (MiB): 3752 / 12528 / 16280
------------------
     ethr =  7.50E-05,  avg # of iterations =  1.0

     negative rho (up, down):  2.301E-02 2.241E-02

     total cpu time spent up to now is       37.1 secs

     total energy              =    -516.22608395 Ry
     estimated scf accuracy    <       1.11910528 Ry

     total magnetization       =    14.44 Bohr mag/cell
     absolute magnetization    =    18.99 Bohr mag/cell
[tb_dev] Currently allocated     8.23E+00 Mbytes, locked:    0 /   8
[tb_pin] Currently allocated     0.00E+00 Mbytes, locked:    0 /   0

     iteration #  9     ecut=    60.00 Ry     beta= 0.20
     Davidson diagonalization with overlap

---- Real-time Memory Report at c_bands before calling an iterative solver
          1829 MiB given to the printing process from OS
          1601 MiB allocation reported by mallinfo(arena+hblkhd)
         38867 MiB available memory on the node where the printing process lives
     GPU memory used/free/total (MiB): 3752 / 12528 / 16280
------------------
     ethr =  7.50E-05,  avg # of iterations =  1.0

     negative rho (up, down):  2.294E-02 2.249E-02

     total cpu time spent up to now is       40.7 secs

     total energy              =    -516.19932103 Ry
     estimated scf accuracy    <       1.05117945 Ry

     total magnetization       =    14.40 Bohr mag/cell
     absolute magnetization    =    18.98 Bohr mag/cell
[tb_dev] Currently allocated     8.23E+00 Mbytes, locked:    0 /   8
[tb_pin] Currently allocated     0.00E+00 Mbytes, locked:    0 /   0

     iteration # 10     ecut=    60.00 Ry     beta= 0.20
     Davidson diagonalization with overlap

---- Real-time Memory Report at c_bands before calling an iterative solver
          1838 MiB given to the printing process from OS
          1611 MiB allocation reported by mallinfo(arena+hblkhd)
         38859 MiB available memory on the node where the printing process lives
     GPU memory used/free/total (MiB): 3752 / 12528 / 16280
------------------
     ethr =  7.50E-05,  avg # of iterations =  2.0

     negative rho (up, down):  2.281E-02 2.268E-02

     total cpu time spent up to now is       45.4 secs

     total energy              =    -516.16214544 Ry
     estimated scf accuracy    <       0.61318641 Ry

     total magnetization       =    14.38 Bohr mag/cell
     absolute magnetization    =    18.83 Bohr mag/cell
[tb_dev] Currently allocated     8.23E+00 Mbytes, locked:    0 /   8
[tb_pin] Currently allocated     0.00E+00 Mbytes, locked:    0 /   0

     iteration # 11     ecut=    60.00 Ry     beta= 0.20
     Davidson diagonalization with overlap

---- Real-time Memory Report at c_bands before calling an iterative solver
          1838 MiB given to the printing process from OS
          1611 MiB allocation reported by mallinfo(arena+hblkhd)
         38859 MiB available memory on the node where the printing process lives
     GPU memory used/free/total (MiB): 3752 / 12528 / 16280
------------------
     ethr =  7.50E-05,  avg # of iterations =  6.8

     negative rho (up, down):  2.278E-02 2.271E-02

     total cpu time spent up to now is       50.8 secs

     total energy              =    -516.35762016 Ry
     estimated scf accuracy    <       1.75679779 Ry

     total magnetization       =    13.53 Bohr mag/cell
     absolute magnetization    =    17.92 Bohr mag/cell
[tb_dev] Currently allocated     8.23E+00 Mbytes, locked:    0 /   8
[tb_pin] Currently allocated     0.00E+00 Mbytes, locked:    0 /   0

     iteration # 12     ecut=    60.00 Ry     beta= 0.20
     Davidson diagonalization with overlap

---- Real-time Memory Report at c_bands before calling an iterative solver
          1838 MiB given to the printing process from OS
          1611 MiB allocation reported by mallinfo(arena+hblkhd)
         38859 MiB available memory on the node where the printing process lives
     GPU memory used/free/total (MiB): 3844 / 12436 / 16280
------------------
     ethr =  7.50E-05,  avg # of iterations =  1.0

     negative rho (up, down):  2.277E-02 2.271E-02

     total cpu time spent up to now is       54.4 secs

     total energy              =    -516.35046507 Ry
     estimated scf accuracy    <       1.31724678 Ry

     total magnetization       =    14.09 Bohr mag/cell
     absolute magnetization    =    18.08 Bohr mag/cell
[tb_dev] Currently allocated     8.23E+00 Mbytes, locked:    0 /   8
[tb_pin] Currently allocated     0.00E+00 Mbytes, locked:    0 /   0

     iteration # 13     ecut=    60.00 Ry     beta= 0.20
     Davidson diagonalization with overlap

---- Real-time Memory Report at c_bands before calling an iterative solver
          1838 MiB given to the printing process from OS
          1611 MiB allocation reported by mallinfo(arena+hblkhd)
         38860 MiB available memory on the node where the printing process lives
     GPU memory used/free/total (MiB): 3844 / 12436 / 16280
------------------
     ethr =  7.50E-05,  avg # of iterations =  1.0

     negative rho (up, down):  2.279E-02 2.271E-02

     total cpu time spent up to now is       58.0 secs

     total energy              =    -516.35473113 Ry
     estimated scf accuracy    <       1.22349126 Ry

     total magnetization       =    14.16 Bohr mag/cell
     absolute magnetization    =    18.13 Bohr mag/cell
[tb_dev] Currently allocated     8.23E+00 Mbytes, locked:    0 /   8
[tb_pin] Currently allocated     0.00E+00 Mbytes, locked:    0 /   0

     iteration # 14     ecut=    60.00 Ry     beta= 0.20
     Davidson diagonalization with overlap

---- Real-time Memory Report at c_bands before calling an iterative solver
          1838 MiB given to the printing process from OS
          1611 MiB allocation reported by mallinfo(arena+hblkhd)
         38860 MiB available memory on the node where the printing process lives
     GPU memory used/free/total (MiB): 3844 / 12436 / 16280
------------------
     ethr =  7.50E-05,  avg # of iterations =  1.0

     negative rho (up, down):  2.295E-02 2.261E-02

     total cpu time spent up to now is       61.6 secs

     total energy              =    -516.30656015 Ry
     estimated scf accuracy    <       1.24453046 Ry

     total magnetization       =    14.15 Bohr mag/cell
     absolute magnetization    =    18.10 Bohr mag/cell
[tb_dev] Currently allocated     8.23E+00 Mbytes, locked:    0 /   8
[tb_pin] Currently allocated     0.00E+00 Mbytes, locked:    0 /   0

     iteration # 15     ecut=    60.00 Ry     beta= 0.20
     Davidson diagonalization with overlap

---- Real-time Memory Report at c_bands before calling an iterative solver
          1838 MiB given to the printing process from OS
          1611 MiB allocation reported by mallinfo(arena+hblkhd)
         38860 MiB available memory on the node where the printing process lives
     GPU memory used/free/total (MiB): 3844 / 12436 / 16280
------------------
     ethr =  7.50E-05,  avg # of iterations =  2.0

     negative rho (up, down):  2.302E-02 2.251E-02

     total cpu time spent up to now is       65.4 secs

     total energy              =    -516.28767318 Ry
     estimated scf accuracy    <       1.01087735 Ry

     total magnetization       =    14.13 Bohr mag/cell
     absolute magnetization    =    18.11 Bohr mag/cell
[tb_dev] Currently allocated     8.23E+00 Mbytes, locked:    0 /   8
[tb_pin] Currently allocated     0.00E+00 Mbytes, locked:    0 /   0

     iteration # 16     ecut=    60.00 Ry     beta= 0.20
     Davidson diagonalization with overlap

---- Real-time Memory Report at c_bands before calling an iterative solver
          1838 MiB given to the printing process from OS
          1611 MiB allocation reported by mallinfo(arena+hblkhd)
         38860 MiB available memory on the node where the printing process lives
     GPU memory used/free/total (MiB): 3844 / 12436 / 16280
------------------
     ethr =  7.50E-05,  avg # of iterations =  1.4

     negative rho (up, down):  2.303E-02 2.250E-02

     total cpu time spent up to now is       69.1 secs

     total energy              =    -516.28724983 Ry
     estimated scf accuracy    <       0.88620827 Ry

     total magnetization       =    14.13 Bohr mag/cell
     absolute magnetization    =    18.14 Bohr mag/cell
[tb_dev] Currently allocated     8.23E+00 Mbytes, locked:    0 /   8
[tb_pin] Currently allocated     0.00E+00 Mbytes, locked:    0 /   0

     iteration # 17     ecut=    60.00 Ry     beta= 0.20
     Davidson diagonalization with overlap

---- Real-time Memory Report at c_bands before calling an iterative solver
          1838 MiB given to the printing process from OS
          1611 MiB allocation reported by mallinfo(arena+hblkhd)
         38860 MiB available memory on the node where the printing process lives
     GPU memory used/free/total (MiB): 3844 / 12436 / 16280
------------------
     ethr =  7.50E-05,  avg # of iterations =  1.0

     negative rho (up, down):  2.303E-02 2.250E-02

     total cpu time spent up to now is       72.6 secs

     total energy              =    -516.28837482 Ry
     estimated scf accuracy    <       0.86643986 Ry

     total magnetization       =    14.13 Bohr mag/cell
     absolute magnetization    =    18.14 Bohr mag/cell
[tb_dev] Currently allocated     8.23E+00 Mbytes, locked:    0 /   8
[tb_pin] Currently allocated     0.00E+00 Mbytes, locked:    0 /   0

     iteration # 18     ecut=    60.00 Ry     beta= 0.20
     Davidson diagonalization with overlap

---- Real-time Memory Report at c_bands before calling an iterative solver
          1838 MiB given to the printing process from OS
          1611 MiB allocation reported by mallinfo(arena+hblkhd)
         38861 MiB available memory on the node where the printing process lives
     GPU memory used/free/total (MiB): 3844 / 12436 / 16280
------------------
     ethr =  7.50E-05,  avg # of iterations =  1.0

     negative rho (up, down):  2.299E-02 2.252E-02

     total cpu time spent up to now is       76.3 secs

     total energy              =    -516.29469353 Ry
     estimated scf accuracy    <       0.85785369 Ry

     total magnetization       =    14.13 Bohr mag/cell
     absolute magnetization    =    18.13 Bohr mag/cell
[tb_dev] Currently allocated     8.23E+00 Mbytes, locked:    0 /   8
[tb_pin] Currently allocated     0.00E+00 Mbytes, locked:    0 /   0

     iteration # 19     ecut=    60.00 Ry     beta= 0.20
     Davidson diagonalization with overlap

---- Real-time Memory Report at c_bands before calling an iterative solver
          1838 MiB given to the printing process from OS
          1611 MiB allocation reported by mallinfo(arena+hblkhd)
         38861 MiB available memory on the node where the printing process lives
     GPU memory used/free/total (MiB): 3844 / 12436 / 16280
------------------
     ethr =  7.50E-05,  avg # of iterations =  1.0

     negative rho (up, down):  2.348E-02 2.142E-02

     total cpu time spent up to now is       79.9 secs

     total energy              =    -516.06578452 Ry
     estimated scf accuracy    <       0.87244715 Ry

     total magnetization       =    14.14 Bohr mag/cell
     absolute magnetization    =    18.11 Bohr mag/cell
[tb_dev] Currently allocated     8.23E+00 Mbytes, locked:    0 /   8
[tb_pin] Currently allocated     0.00E+00 Mbytes, locked:    0 /   0

     iteration # 20     ecut=    60.00 Ry     beta= 0.20
     Davidson diagonalization with overlap

---- Real-time Memory Report at c_bands before calling an iterative solver
          1838 MiB given to the printing process from OS
          1611 MiB allocation reported by mallinfo(arena+hblkhd)
         38861 MiB available memory on the node where the printing process lives
     GPU memory used/free/total (MiB): 3844 / 12436 / 16280
------------------
     ethr =  7.50E-05,  avg # of iterations =  9.2

     negative rho (up, down):  2.338E-02 2.202E-02

     total cpu time spent up to now is       86.4 secs

     total energy              =    -516.62685648 Ry
     estimated scf accuracy    <      12.29407438 Ry

     total magnetization       =    12.00 Bohr mag/cell
     absolute magnetization    =    13.98 Bohr mag/cell
[tb_dev] Currently allocated     8.23E+00 Mbytes, locked:    0 /   8
[tb_pin] Currently allocated     0.00E+00 Mbytes, locked:    0 /   0

     iteration # 21     ecut=    60.00 Ry     beta= 0.20
     Davidson diagonalization with overlap

---- Real-time Memory Report at c_bands before calling an iterative solver
          1838 MiB given to the printing process from OS
          1611 MiB allocation reported by mallinfo(arena+hblkhd)
         38860 MiB available memory on the node where the printing process lives
     GPU memory used/free/total (MiB): 3844 / 12436 / 16280
------------------
     ethr =  7.50E-05,  avg # of iterations =  7.2

     negative rho (up, down):  2.313E-02 2.182E-02

     total cpu time spent up to now is       91.5 secs

     WARNING: integrated charge=    68.00071869, expected=    68.00000000

     total energy              =    -516.53045458 Ry
     estimated scf accuracy    <      10.33434494 Ry

     total magnetization       =    12.00 Bohr mag/cell
     absolute magnetization    =    14.17 Bohr mag/cell
[tb_dev] Currently allocated     8.23E+00 Mbytes, locked:    0 /   8
[tb_pin] Currently allocated     0.00E+00 Mbytes, locked:    0 /   0

     iteration # 22     ecut=    60.00 Ry     beta= 0.20
     Davidson diagonalization with overlap

---- Real-time Memory Report at c_bands before calling an iterative solver
          1838 MiB given to the printing process from OS
          1611 MiB allocation reported by mallinfo(arena+hblkhd)
         38860 MiB available memory on the node where the printing process lives
     GPU memory used/free/total (MiB): 3844 / 12436 / 16280
------------------
     ethr =  7.50E-05,  avg # of iterations =  4.8
     Minimization algorithm failed to find Fermi energy: reverting to bisection
     Possible cause: smearing is larger than the electronic band-gap.

     negative rho (up, down):  2.303E-02 2.229E-02

     total cpu time spent up to now is       95.9 secs

     WARNING: integrated charge=    68.00172415, expected=    68.00000000

     total energy              =    -516.04501702 Ry
     estimated scf accuracy    <       9.55967193 Ry

     total magnetization       =    12.06 Bohr mag/cell
     absolute magnetization    =    14.39 Bohr mag/cell
[tb_dev] Currently allocated     8.23E+00 Mbytes, locked:    0 /   8
[tb_pin] Currently allocated     0.00E+00 Mbytes, locked:    0 /   0

     iteration # 23     ecut=    60.00 Ry     beta= 0.20
     Davidson diagonalization with overlap

---- Real-time Memory Report at c_bands before calling an iterative solver
          1838 MiB given to the printing process from OS
          1611 MiB allocation reported by mallinfo(arena+hblkhd)
         38861 MiB available memory on the node where the printing process lives
     GPU memory used/free/total (MiB): 3844 / 12436 / 16280
------------------
     ethr =  7.50E-05,  avg # of iterations =  7.3

     negative rho (up, down):  2.305E-02 2.200E-02

     total cpu time spent up to now is      101.6 secs

     WARNING: integrated charge=    68.00208456, expected=    68.00000000

     total energy              =    -516.27265773 Ry
     estimated scf accuracy    <       1.00431156 Ry

     total magnetization       =    12.74 Bohr mag/cell
     absolute magnetization    =    17.88 Bohr mag/cell
[tb_dev] Currently allocated     8.23E+00 Mbytes, locked:    0 /   8
[tb_pin] Currently allocated     0.00E+00 Mbytes, locked:    0 /   0

     iteration # 24     ecut=    60.00 Ry     beta= 0.20
     Davidson diagonalization with overlap

---- Real-time Memory Report at c_bands before calling an iterative solver
          1838 MiB given to the printing process from OS
          1611 MiB allocation reported by mallinfo(arena+hblkhd)
         38860 MiB available memory on the node where the printing process lives
     GPU memory used/free/total (MiB): 3844 / 12436 / 16280
------------------
     ethr =  7.50E-05,  avg # of iterations =  1.0

     negative rho (up, down):  2.336E-02 2.204E-02

     total cpu time spent up to now is      105.2 secs

     WARNING: integrated charge=    67.99824604, expected=    68.00000000

     total energy              =    -516.19745292 Ry
     estimated scf accuracy    <       2.23608031 Ry

     total magnetization       =    11.76 Bohr mag/cell
     absolute magnetization    =    17.24 Bohr mag/cell
[tb_dev] Currently allocated     8.23E+00 Mbytes, locked:    0 /   8
[tb_pin] Currently allocated     0.00E+00 Mbytes, locked:    0 /   0

     iteration # 25     ecut=    60.00 Ry     beta= 0.20
     Davidson diagonalization with overlap

---- Real-time Memory Report at c_bands before calling an iterative solver
          1838 MiB given to the printing process from OS
          1611 MiB allocation reported by mallinfo(arena+hblkhd)
         38862 MiB available memory on the node where the printing process lives
     GPU memory used/free/total (MiB): 3844 / 12436 / 16280
------------------
     ethr =  7.50E-05,  avg # of iterations =  7.1

     negative rho (up, down):  2.316E-02 2.224E-02

     total cpu time spent up to now is      110.7 secs

     WARNING: integrated charge=    67.99683492, expected=    68.00000000

     total energy              =    -516.14710122 Ry
     estimated scf accuracy    <       8.26499552 Ry

     total magnetization       =    12.01 Bohr mag/cell
     absolute magnetization    =    15.12 Bohr mag/cell
[tb_dev] Currently allocated     8.23E+00 Mbytes, locked:    0 /   8
[tb_pin] Currently allocated     0.00E+00 Mbytes, locked:    0 /   0

     iteration # 26     ecut=    60.00 Ry     beta= 0.20
     Davidson diagonalization with overlap

---- Real-time Memory Report at c_bands before calling an iterative solver
          1838 MiB given to the printing process from OS
          1611 MiB allocation reported by mallinfo(arena+hblkhd)
         38862 MiB available memory on the node where the printing process lives
     GPU memory used/free/total (MiB): 3844 / 12436 / 16280
------------------
     ethr =  7.50E-05,  avg # of iterations =  4.6

     negative rho (up, down):  2.295E-02 2.253E-02

     total cpu time spent up to now is      115.0 secs

     WARNING: integrated charge=    67.99869253, expected=    68.00000000

     total energy              =    -516.13696767 Ry
     estimated scf accuracy    <       1.95211488 Ry

     total magnetization       =    13.80 Bohr mag/cell
     absolute magnetization    =    18.96 Bohr mag/cell
[tb_dev] Currently allocated     8.23E+00 Mbytes, locked:    0 /   8
[tb_pin] Currently allocated     0.00E+00 Mbytes, locked:    0 /   0

     iteration # 27     ecut=    60.00 Ry     beta= 0.20
     Davidson diagonalization with overlap

---- Real-time Memory Report at c_bands before calling an iterative solver
          1838 MiB given to the printing process from OS
          1611 MiB allocation reported by mallinfo(arena+hblkhd)
         38863 MiB available memory on the node where the printing process lives
     GPU memory used/free/total (MiB): 3844 / 12436 / 16280
------------------
     ethr =  7.50E-05,  avg # of iterations =  8.0

     negative rho (up, down):  2.297E-02 2.252E-02

     total cpu time spent up to now is      120.6 secs

     WARNING: integrated charge=    67.99831944, expected=    68.00000000

     total energy              =    -516.29215112 Ry
     estimated scf accuracy    <       0.59566756 Ry

     total magnetization       =    14.15 Bohr mag/cell
     absolute magnetization    =    18.04 Bohr mag/cell
[tb_dev] Currently allocated     8.23E+00 Mbytes, locked:    0 /   8
[tb_pin] Currently allocated     0.00E+00 Mbytes, locked:    0 /   0

     iteration # 28     ecut=    60.00 Ry     beta= 0.20
     Davidson diagonalization with overlap

---- Real-time Memory Report at c_bands before calling an iterative solver
          1838 MiB given to the printing process from OS
          1611 MiB allocation reported by mallinfo(arena+hblkhd)
         38862 MiB available memory on the node where the printing process lives
     GPU memory used/free/total (MiB): 3844 / 12436 / 16280
------------------
     ethr =  7.50E-05,  avg # of iterations =  1.0

     negative rho (up, down):  2.295E-02 2.255E-02

     total cpu time spent up to now is      124.2 secs

     WARNING: integrated charge=    67.99821704, expected=    68.00000000

     total energy              =    -516.29869404 Ry
     estimated scf accuracy    <       0.59593026 Ry

     total magnetization       =    14.13 Bohr mag/cell
     absolute magnetization    =    18.04 Bohr mag/cell
[tb_dev] Currently allocated     8.23E+00 Mbytes, locked:    0 /   8
[tb_pin] Currently allocated     0.00E+00 Mbytes, locked:    0 /   0

     iteration # 29     ecut=    60.00 Ry     beta= 0.20
     Davidson diagonalization with overlap

---- Real-time Memory Report at c_bands before calling an iterative solver
          1838 MiB given to the printing process from OS
          1611 MiB allocation reported by mallinfo(arena+hblkhd)
         38862 MiB available memory on the node where the printing process lives
     GPU memory used/free/total (MiB): 3844 / 12436 / 16280
------------------
     ethr =  7.50E-05,  avg # of iterations =  1.0

     negative rho (up, down):  2.301E-02 2.242E-02

     total cpu time spent up to now is      127.8 secs

     WARNING: integrated charge=    67.99800196, expected=    68.00000000

     total energy              =    -516.27391465 Ry
     estimated scf accuracy    <       0.65439632 Ry

     total magnetization       =    14.09 Bohr mag/cell
     absolute magnetization    =    18.01 Bohr mag/cell
[tb_dev] Currently allocated     8.23E+00 Mbytes, locked:    0 /   8
[tb_pin] Currently allocated     0.00E+00 Mbytes, locked:    0 /   0

     iteration # 30     ecut=    60.00 Ry     beta= 0.20
     Davidson diagonalization with overlap

---- Real-time Memory Report at c_bands before calling an iterative solver
          1838 MiB given to the printing process from OS
          1611 MiB allocation reported by mallinfo(arena+hblkhd)
         38862 MiB available memory on the node where the printing process lives
     GPU memory used/free/total (MiB): 3844 / 12436 / 16280
------------------
     ethr =  7.50E-05,  avg # of iterations =  1.3

     negative rho (up, down):  2.309E-02 2.229E-02

     total cpu time spent up to now is      131.4 secs

     WARNING: integrated charge=    67.99856069, expected=    68.00000000

     total energy              =    -516.24477512 Ry
     estimated scf accuracy    <       0.50061874 Ry

     total magnetization       =    14.15 Bohr mag/cell
     absolute magnetization    =    18.06 Bohr mag/cell
[tb_dev] Currently allocated     8.23E+00 Mbytes, locked:    0 /   8
[tb_pin] Currently allocated     0.00E+00 Mbytes, locked:    0 /   0

     iteration # 31     ecut=    60.00 Ry     beta= 0.20
     Davidson diagonalization with overlap

---- Real-time Memory Report at c_bands before calling an iterative solver
          1838 MiB given to the printing process from OS
          1611 MiB allocation reported by mallinfo(arena+hblkhd)
         38863 MiB available memory on the node where the printing process lives
     GPU memory used/free/total (MiB): 3844 / 12436 / 16280
------------------
     ethr =  7.50E-05,  avg # of iterations =  2.1

     negative rho (up, down):  2.308E-02 2.236E-02

     total cpu time spent up to now is      135.3 secs

     WARNING: integrated charge=    67.99805026, expected=    68.00000000

     total energy              =    -516.25071277 Ry
     estimated scf accuracy    <       0.27878162 Ry

     total magnetization       =    13.81 Bohr mag/cell
     absolute magnetization    =    17.90 Bohr mag/cell
[tb_dev] Currently allocated     8.23E+00 Mbytes, locked:    0 /   8
[tb_pin] Currently allocated     0.00E+00 Mbytes, locked:    0 /   0

     iteration # 32     ecut=    60.00 Ry     beta= 0.20
     Davidson diagonalization with overlap

---- Real-time Memory Report at c_bands before calling an iterative solver
          1838 MiB given to the printing process from OS
          1611 MiB allocation reported by mallinfo(arena+hblkhd)
         38863 MiB available memory on the node where the printing process lives
     GPU memory used/free/total (MiB): 3844 / 12436 / 16280
------------------
     ethr =  7.50E-05,  avg # of iterations =  1.0

     negative rho (up, down):  2.311E-02 2.225E-02

     total cpu time spent up to now is      138.9 secs

     WARNING: integrated charge=    67.99951683, expected=    68.00000000

     total energy              =    -516.24757589 Ry
     estimated scf accuracy    <       0.39961081 Ry

     total magnetization       =    14.58 Bohr mag/cell
     absolute magnetization    =    18.29 Bohr mag/cell
[tb_dev] Currently allocated     8.23E+00 Mbytes, locked:    0 /   8
[tb_pin] Currently allocated     0.00E+00 Mbytes, locked:    0 /   0

     iteration # 33     ecut=    60.00 Ry     beta= 0.20
     Davidson diagonalization with overlap

---- Real-time Memory Report at c_bands before calling an iterative solver
          1838 MiB given to the printing process from OS
          1611 MiB allocation reported by mallinfo(arena+hblkhd)
         38863 MiB available memory on the node where the printing process lives
     GPU memory used/free/total (MiB): 3844 / 12436 / 16280
------------------
     ethr =  7.50E-05,  avg # of iterations =  1.0

     negative rho (up, down):  2.309E-02 2.235E-02

     total cpu time spent up to now is      142.5 secs

     WARNING: integrated charge=    68.00069248, expected=    68.00000000

     total energy              =    -516.26358598 Ry
     estimated scf accuracy    <       0.26613173 Ry

     total magnetization       =    13.92 Bohr mag/cell
     absolute magnetization    =    17.85 Bohr mag/cell
[tb_dev] Currently allocated     8.23E+00 Mbytes, locked:    0 /   8
[tb_pin] Currently allocated     0.00E+00 Mbytes, locked:    0 /   0

     iteration # 34     ecut=    60.00 Ry     beta= 0.20
     Davidson diagonalization with overlap

---- Real-time Memory Report at c_bands before calling an iterative solver
          1838 MiB given to the printing process from OS
          1611 MiB allocation reported by mallinfo(arena+hblkhd)
         38863 MiB available memory on the node where the printing process lives
     GPU memory used/free/total (MiB): 3844 / 12436 / 16280
------------------
     ethr =  7.50E-05,  avg # of iterations =  1.6

     negative rho (up, down):  2.313E-02 2.230E-02

     total cpu time spent up to now is      146.3 secs

     WARNING: integrated charge=    68.00060547, expected=    68.00000000

     total energy              =    -516.25992415 Ry
     estimated scf accuracy    <       0.45258836 Ry

     total magnetization       =    14.16 Bohr mag/cell
     absolute magnetization    =    17.97 Bohr mag/cell
[tb_dev] Currently allocated     8.23E+00 Mbytes, locked:    0 /   8
[tb_pin] Currently allocated     0.00E+00 Mbytes, locked:    0 /   0

     iteration # 35     ecut=    60.00 Ry     beta= 0.20
     Davidson diagonalization with overlap

---- Real-time Memory Report at c_bands before calling an iterative solver
          1838 MiB given to the printing process from OS
          1611 MiB allocation reported by mallinfo(arena+hblkhd)
         38863 MiB available memory on the node where the printing process lives
     GPU memory used/free/total (MiB): 3844 / 12436 / 16280
------------------
     ethr =  7.50E-05,  avg # of iterations =  1.0

     negative rho (up, down):  2.341E-02 2.174E-02

     total cpu time spent up to now is      150.0 secs

     WARNING: integrated charge=    68.00507408, expected=    68.00000000

     total energy              =    -516.19165997 Ry
     estimated scf accuracy    <       0.36692491 Ry

     total magnetization       =    14.24 Bohr mag/cell
     absolute magnetization    =    17.96 Bohr mag/cell
[tb_dev] Currently allocated     8.23E+00 Mbytes, locked:    0 /   8
[tb_pin] Currently allocated     0.00E+00 Mbytes, locked:    0 /   0

     iteration # 36     ecut=    60.00 Ry     beta= 0.20
     Davidson diagonalization with overlap

---- Real-time Memory Report at c_bands before calling an iterative solver
          1838 MiB given to the printing process from OS
          1611 MiB allocation reported by mallinfo(arena+hblkhd)
         38863 MiB available memory on the node where the printing process lives
     GPU memory used/free/total (MiB): 3844 / 12436 / 16280
------------------
     ethr =  7.50E-05,  avg # of iterations =  8.2

     negative rho (up, down):  2.343E-02 2.173E-02

     total cpu time spent up to now is      155.5 secs

     WARNING: integrated charge=    68.00238551, expected=    68.00000000

     total energy              =    -516.60923592 Ry
     estimated scf accuracy    <       8.63224580 Ry

     total magnetization       =    11.99 Bohr mag/cell
     absolute magnetization    =    14.37 Bohr mag/cell
[tb_dev] Currently allocated     8.23E+00 Mbytes, locked:    0 /   8
[tb_pin] Currently allocated     0.00E+00 Mbytes, locked:    0 /   0

     iteration # 37     ecut=    60.00 Ry     beta= 0.20
     Davidson diagonalization with overlap

---- Real-time Memory Report at c_bands before calling an iterative solver
          1838 MiB given to the printing process from OS
          1611 MiB allocation reported by mallinfo(arena+hblkhd)
         38863 MiB available memory on the node where the printing process lives
     GPU memory used/free/total (MiB): 3844 / 12436 / 16280
------------------
     ethr =  7.50E-05,  avg # of iterations =  1.1

     negative rho (up, down):  2.342E-02 2.173E-02

     total cpu time spent up to now is      159.1 secs

     WARNING: integrated charge=    68.00260243, expected=    68.00000000

     total energy              =    -516.61985420 Ry
     estimated scf accuracy    <       8.54653044 Ry

     total magnetization       =    11.99 Bohr mag/cell
     absolute magnetization    =    14.37 Bohr mag/cell
[tb_dev] Currently allocated     8.23E+00 Mbytes, locked:    0 /   8
[tb_pin] Currently allocated     0.00E+00 Mbytes, locked:    0 /   0

     iteration # 38     ecut=    60.00 Ry     beta= 0.20
     Davidson diagonalization with overlap

---- Real-time Memory Report at c_bands before calling an iterative solver
          1838 MiB given to the printing process from OS
          1611 MiB allocation reported by mallinfo(arena+hblkhd)
         38863 MiB available memory on the node where the printing process lives
     GPU memory used/free/total (MiB): 3844 / 12436 / 16280
------------------
     ethr =  7.50E-05,  avg # of iterations =  1.0

     negative rho (up, down):  2.350E-02 2.153E-02

     total cpu time spent up to now is      162.7 secs

     WARNING: integrated charge=    68.00615629, expected=    68.00000000

     total energy              =    -517.06902229 Ry
     estimated scf accuracy    <       8.61265424 Ry

     total magnetization       =    11.99 Bohr mag/cell
     absolute magnetization    =    14.38 Bohr mag/cell
[tb_dev] Currently allocated     8.23E+00 Mbytes, locked:    0 /   8
[tb_pin] Currently allocated     0.00E+00 Mbytes, locked:    0 /   0

     iteration # 39     ecut=    60.00 Ry     beta= 0.20
     Davidson diagonalization with overlap

---- Real-time Memory Report at c_bands before calling an iterative solver
          1838 MiB given to the printing process from OS
          1611 MiB allocation reported by mallinfo(arena+hblkhd)
         38863 MiB available memory on the node where the printing process lives
     GPU memory used/free/total (MiB): 3844 / 12436 / 16280
------------------
     ethr =  7.50E-05,  avg # of iterations =  7.8

     negative rho (up, down):  2.331E-02 2.184E-02

     total cpu time spent up to now is      167.9 secs

     WARNING: integrated charge=    68.00242230, expected=    68.00000000

     total energy              =    -516.84022993 Ry
     estimated scf accuracy    <      11.88620293 Ry

     total magnetization       =    12.00 Bohr mag/cell
     absolute magnetization    =    14.05 Bohr mag/cell
[tb_dev] Currently allocated     8.23E+00 Mbytes, locked:    0 /   8
[tb_pin] Currently allocated     0.00E+00 Mbytes, locked:    0 /   0

     iteration # 40     ecut=    60.00 Ry     beta= 0.20
     Davidson diagonalization with overlap

---- Real-time Memory Report at c_bands before calling an iterative solver
          1838 MiB given to the printing process from OS
          1611 MiB allocation reported by mallinfo(arena+hblkhd)
         38863 MiB available memory on the node where the printing process lives
     GPU memory used/free/total (MiB): 3844 / 12436 / 16280
------------------
     ethr =  7.50E-05,  avg # of iterations =  6.0

     negative rho (up, down):  2.253E-02 2.289E-02

     total cpu time spent up to now is      172.4 secs

     WARNING: integrated charge=    68.00290521, expected=    68.00000000

     total energy              =    -515.82523124 Ry
     estimated scf accuracy    <      11.09001531 Ry

     total magnetization       =    12.00 Bohr mag/cell
     absolute magnetization    =    14.07 Bohr mag/cell
[tb_dev] Currently allocated     8.23E+00 Mbytes, locked:    0 /   8
[tb_pin] Currently allocated     0.00E+00 Mbytes, locked:    0 /   0

     iteration # 41     ecut=    60.00 Ry     beta= 0.20
     Davidson diagonalization with overlap

---- Real-time Memory Report at c_bands before calling an iterative solver
          1838 MiB given to the printing process from OS
          1611 MiB allocation reported by mallinfo(arena+hblkhd)
         38863 MiB available memory on the node where the printing process lives
     GPU memory used/free/total (MiB): 3844 / 12436 / 16280
------------------
     c_bands:  1 eigenvalues not converged
     ethr =  7.50E-05,  avg # of iterations =  9.2

     negative rho (up, down):  2.305E-02 2.227E-02

     total cpu time spent up to now is      178.7 secs

     WARNING: integrated charge=    67.99802532, expected=    68.00000000

     total energy              =    -516.14492603 Ry
     estimated scf accuracy    <       4.83419463 Ry

     total magnetization       =    14.20 Bohr mag/cell
     absolute magnetization    =    16.74 Bohr mag/cell
[tb_dev] Currently allocated     8.23E+00 Mbytes, locked:    0 /   8
[tb_pin] Currently allocated     0.00E+00 Mbytes, locked:    0 /   0

     iteration # 42     ecut=    60.00 Ry     beta= 0.20
     Davidson diagonalization with overlap

---- Real-time Memory Report at c_bands before calling an iterative solver
          1838 MiB given to the printing process from OS
          1611 MiB allocation reported by mallinfo(arena+hblkhd)
         38862 MiB available memory on the node where the printing process lives
     GPU memory used/free/total (MiB): 3844 / 12436 / 16280
------------------
     ethr =  7.50E-05,  avg # of iterations =  8.4
     Minimization algorithm failed to find Fermi energy: reverting to bisection
     Possible cause: smearing is larger than the electronic band-gap.

     negative rho (up, down):  2.300E-02 2.257E-02

     total cpu time spent up to now is      184.6 secs

     WARNING: integrated charge=    67.99415369, expected=    68.00000000

     total energy              =    -516.06191308 Ry
     estimated scf accuracy    <       9.21944409 Ry

     total magnetization       =    11.93 Bohr mag/cell
     absolute magnetization    =    14.75 Bohr mag/cell
[tb_dev] Currently allocated     8.23E+00 Mbytes, locked:    0 /   8
[tb_pin] Currently allocated     0.00E+00 Mbytes, locked:    0 /   0

     iteration # 43     ecut=    60.00 Ry     beta= 0.20
     Davidson diagonalization with overlap

---- Real-time Memory Report at c_bands before calling an iterative solver
          1838 MiB given to the printing process from OS
          1611 MiB allocation reported by mallinfo(arena+hblkhd)
         38861 MiB available memory on the node where the printing process lives
     GPU memory used/free/total (MiB): 3844 / 12436 / 16280
------------------
     ethr =  7.50E-05,  avg # of iterations =  6.2

     negative rho (up, down):  2.306E-02 2.238E-02

     total cpu time spent up to now is      189.4 secs

     WARNING: integrated charge=    67.99958664, expected=    68.00000000

     total energy              =    -516.22841059 Ry
     estimated scf accuracy    <       1.55493983 Ry

     total magnetization       =    14.14 Bohr mag/cell
     absolute magnetization    =    19.08 Bohr mag/cell
[tb_dev] Currently allocated     8.23E+00 Mbytes, locked:    0 /   8
[tb_pin] Currently allocated     0.00E+00 Mbytes, locked:    0 /   0

     iteration # 44     ecut=    60.00 Ry     beta= 0.20
     Davidson diagonalization with overlap

---- Real-time Memory Report at c_bands before calling an iterative solver
          1839 MiB given to the printing process from OS
          1611 MiB allocation reported by mallinfo(arena+hblkhd)
         38863 MiB available memory on the node where the printing process lives
     GPU memory used/free/total (MiB): 3844 / 12436 / 16280
------------------
     ethr =  7.50E-05,  avg # of iterations =  1.4

     negative rho (up, down):  2.310E-02 2.223E-02

     total cpu time spent up to now is      193.1 secs

     WARNING: integrated charge=    68.00206801, expected=    68.00000000

     total energy              =    -516.19807365 Ry
     estimated scf accuracy    <       1.26403416 Ry

     total magnetization       =    14.49 Bohr mag/cell
     absolute magnetization    =    19.08 Bohr mag/cell
[tb_dev] Currently allocated     8.23E+00 Mbytes, locked:    0 /   8
[tb_pin] Currently allocated     0.00E+00 Mbytes, locked:    0 /   0

     iteration # 45     ecut=    60.00 Ry     beta= 0.20
     Davidson diagonalization with overlap

---- Real-time Memory Report at c_bands before calling an iterative solver
          1839 MiB given to the printing process from OS
          1611 MiB allocation reported by mallinfo(arena+hblkhd)
         38863 MiB available memory on the node where the printing process lives
     GPU memory used/free/total (MiB): 3844 / 12436 / 16280
------------------
     ethr =  7.50E-05,  avg # of iterations =  3.3

     negative rho (up, down):  2.231E-02 2.312E-02

     total cpu time spent up to now is      197.4 secs

     WARNING: integrated charge=    67.99589457, expected=    68.00000000

     total energy              =    -516.19867143 Ry
     estimated scf accuracy    <       0.37500436 Ry

     total magnetization       =    12.61 Bohr mag/cell
     absolute magnetization    =    18.29 Bohr mag/cell
[tb_dev] Currently allocated     8.23E+00 Mbytes, locked:    0 /   8
[tb_pin] Currently allocated     0.00E+00 Mbytes, locked:    0 /   0

     iteration # 46     ecut=    60.00 Ry     beta= 0.20
     Davidson diagonalization with overlap

---- Real-time Memory Report at c_bands before calling an iterative solver
          1839 MiB given to the printing process from OS
          1611 MiB allocation reported by mallinfo(arena+hblkhd)
         38862 MiB available memory on the node where the printing process lives
     GPU memory used/free/total (MiB): 3844 / 12436 / 16280
------------------
     ethr =  7.50E-05,  avg # of iterations =  4.8

     negative rho (up, down):  2.225E-02 2.333E-02

     total cpu time spent up to now is      211.7 secs

     WARNING: integrated charge=    67.99295479, expected=    68.00000000

     total energy              =    -516.23228683 Ry
     estimated scf accuracy    <       2.43162944 Ry

     total magnetization       =    14.87 Bohr mag/cell
     absolute magnetization    =    19.84 Bohr mag/cell
[tb_dev] Currently allocated     8.23E+00 Mbytes, locked:    0 /   8
[tb_pin] Currently allocated     0.00E+00 Mbytes, locked:    0 /   0

     iteration # 47     ecut=    60.00 Ry     beta= 0.20
     Davidson diagonalization with overlap

---- Real-time Memory Report at c_bands before calling an iterative solver
          1839 MiB given to the printing process from OS
          1611 MiB allocation reported by mallinfo(arena+hblkhd)
         38864 MiB available memory on the node where the printing process lives
     GPU memory used/free/total (MiB): 3844 / 12436 / 16280
------------------
     ethr =  7.50E-05,  avg # of iterations =  1.7

     negative rho (up, down):  2.257E-02 2.294E-02

     total cpu time spent up to now is      226.5 secs

     WARNING: integrated charge=    67.99777915, expected=    68.00000000

     total energy              =    -516.17910297 Ry
     estimated scf accuracy    <       1.46621841 Ry

     total magnetization       =    14.56 Bohr mag/cell
     absolute magnetization    =    19.44 Bohr mag/cell
[tb_dev] Currently allocated     8.23E+00 Mbytes, locked:    0 /   8
[tb_pin] Currently allocated     0.00E+00 Mbytes, locked:    0 /   0

[...]
         38864 MiB available memory on the node where the printing process lives
     GPU memory used/free/total (MiB): 3844 / 12436 / 16280
------------------
     ethr =  7.50E-05,  avg # of iterations =  7.0

     negative rho (up, down):  2.344E-02 2.193E-02

     total cpu time spent up to now is      329.1 secs

     WARNING: integrated charge=    68.00147862, expected=    68.00000000

     total energy              =    -516.18710461 Ry
     estimated scf accuracy    <       2.00905029 Ry

     total magnetization       =    14.23 Bohr mag/cell
     absolute magnetization    =    17.46 Bohr mag/cell
[tb_dev] Currently allocated     8.23E+00 Mbytes, locked:    0 /   8
[tb_pin] Currently allocated     0.00E+00 Mbytes, locked:    0 /   0

     iteration # 67     ecut=    60.00 Ry     beta= 0.20
     Davidson diagonalization with overlap

---- Real-time Memory Report at c_bands before calling an iterative solver
          1839 MiB given to the printing process from OS
          1611 MiB allocation reported by mallinfo(arena+hblkhd)
         38864 MiB available memory on the node where the printing process lives
     GPU memory used/free/total (MiB): 3844 / 12436 / 16280
------------------
     ethr =  7.50E-05,  avg # of iterations =  1.6

     negative rho (up, down):  2.301E-02 2.245E-02

     total cpu time spent up to now is      332.9 secs

     WARNING: integrated charge=    68.00032058, expected=    68.00000000

     total energy              =    -516.21671008 Ry
     estimated scf accuracy    <       1.34689013 Ry

     total magnetization       =    12.50 Bohr mag/cell
     absolute magnetization    =    17.53 Bohr mag/cell
[tb_dev] Currently allocated     8.23E+00 Mbytes, locked:    0 /   8
[tb_pin] Currently allocated     0.00E+00 Mbytes, locked:    0 /   0

     iteration # 68     ecut=    60.00 Ry     beta= 0.20
     Davidson diagonalization with overlap

---- Real-time Memory Report at c_bands before calling an iterative solver
          1839 MiB given to the printing process from OS
          1611 MiB allocation reported by mallinfo(arena+hblkhd)
         38864 MiB available memory on the node where the printing process lives
     GPU memory used/free/total (MiB): 3844 / 12436 / 16280
------------------
     ethr =  7.50E-05,  avg # of iterations =  6.3

     negative rho (up, down):  2.309E-02 2.237E-02

     total cpu time spent up to now is      338.3 secs

     WARNING: integrated charge=    68.00001819, expected=    68.00000000

     total energy              =    -516.24917621 Ry
     estimated scf accuracy    <       1.08545980 Ry

     total magnetization       =    14.16 Bohr mag/cell
     absolute magnetization    =    18.83 Bohr mag/cell
[tb_dev] Currently allocated     8.23E+00 Mbytes, locked:    0 /   8
[tb_pin] Currently allocated     0.00E+00 Mbytes, locked:    0 /   0

     iteration # 69     ecut=    60.00 Ry     beta= 0.20
     Davidson diagonalization with overlap

---- Real-time Memory Report at c_bands before calling an iterative solver
          1839 MiB given to the printing process from OS
          1611 MiB allocation reported by mallinfo(arena+hblkhd)
         38863 MiB available memory on the node where the printing process lives
     GPU memory used/free/total (MiB): 3844 / 12436 / 16280
------------------
     ethr =  7.50E-05,  avg # of iterations =  1.1

     negative rho (up, down):  2.310E-02 2.229E-02

     total cpu time spent up to now is      341.8 secs

     WARNING: integrated charge=    68.00155481, expected=    68.00000000

     total energy              =    -516.24501833 Ry
     estimated scf accuracy    <       1.11806731 Ry

     total magnetization       =    14.30 Bohr mag/cell
     absolute magnetization    =    18.85 Bohr mag/cell
[tb_dev] Currently allocated     8.23E+00 Mbytes, locked:    0 /   8
[tb_pin] Currently allocated     0.00E+00 Mbytes, locked:    0 /   0

     iteration # 70     ecut=    60.00 Ry     beta= 0.20
     Davidson diagonalization with overlap

---- Real-time Memory Report at c_bands before calling an iterative solver
          1839 MiB given to the printing process from OS
          1611 MiB allocation reported by mallinfo(arena+hblkhd)
         38863 MiB available memory on the node where the printing process lives
     GPU memory used/free/total (MiB): 3844 / 12436 / 16280
------------------
     ethr =  7.50E-05,  avg # of iterations =  1.0

     negative rho (up, down):  2.325E-02 2.211E-02

     total cpu time spent up to now is      345.4 secs

     WARNING: integrated charge=    68.00182356, expected=    68.00000000

     total energy              =    -516.22393272 Ry
     estimated scf accuracy    <       0.98489764 Ry

     total magnetization       =    14.03 Bohr mag/cell
     absolute magnetization    =    18.80 Bohr mag/cell
[tb_dev] Currently allocated     8.23E+00 Mbytes, locked:    0 /   8
[tb_pin] Currently allocated     0.00E+00 Mbytes, locked:    0 /   0

     iteration # 71     ecut=    60.00 Ry     beta= 0.20
     Davidson diagonalization with overlap

---- Real-time Memory Report at c_bands before calling an iterative solver
          1839 MiB given to the printing process from OS
          1611 MiB allocation reported by mallinfo(arena+hblkhd)
         38863 MiB available memory on the node where the printing process lives
     GPU memory used/free/total (MiB): 3844 / 12436 / 16280
------------------
     ethr =  7.50E-05,  avg # of iterations =  1.6

     negative rho (up, down):  2.327E-02 2.208E-02

     total cpu time spent up to now is      349.1 secs

     WARNING: integrated charge=    68.00138717, expected=    68.00000000

     total energy              =    -516.24127726 Ry
     estimated scf accuracy    <       0.77250364 Ry

     total magnetization       =    14.22 Bohr mag/cell
     absolute magnetization    =    18.60 Bohr mag/cell
[tb_dev] Currently allocated     8.23E+00 Mbytes, locked:    0 /   8
[tb_pin] Currently allocated     0.00E+00 Mbytes, locked:    0 /   0

     iteration # 72     ecut=    60.00 Ry     beta= 0.20
     Davidson diagonalization with overlap

---- Real-time Memory Report at c_bands before calling an iterative solver
          1839 MiB given to the printing process from OS
          1611 MiB allocation reported by mallinfo(arena+hblkhd)
         38863 MiB available memory on the node where the printing process lives
     GPU memory used/free/total (MiB): 3844 / 12436 / 16280
------------------
     ethr =  7.50E-05,  avg # of iterations =  1.0

     negative rho (up, down):  2.304E-02 2.235E-02

     total cpu time spent up to now is      352.7 secs

     WARNING: integrated charge=    68.00178971, expected=    68.00000000

     total energy              =    -516.22930921 Ry
     estimated scf accuracy    <       0.88875561 Ry

     total magnetization       =    14.22 Bohr mag/cell
     absolute magnetization    =    18.48 Bohr mag/cell
[tb_dev] Currently allocated     8.23E+00 Mbytes, locked:    0 /   8
[tb_pin] Currently allocated     0.00E+00 Mbytes, locked:    0 /   0

     iteration # 73     ecut=    60.00 Ry     beta= 0.20
     Davidson diagonalization with overlap

---- Real-time Memory Report at c_bands before calling an iterative solver
          1839 MiB given to the printing process from OS
          1611 MiB allocation reported by mallinfo(arena+hblkhd)
         38864 MiB available memory on the node where the printing process lives
     GPU memory used/free/total (MiB): 3844 / 12436 / 16280
------------------
     ethr =  7.50E-05,  avg # of iterations =  1.5

     negative rho (up, down):  2.289E-02 2.254E-02

     total cpu time spent up to now is      356.4 secs

     WARNING: integrated charge=    68.00081865, expected=    68.00000000

     total energy              =    -516.23802117 Ry
     estimated scf accuracy    <       0.63728193 Ry

     total magnetization       =    14.04 Bohr mag/cell
     absolute magnetization    =    18.73 Bohr mag/cell
[tb_dev] Currently allocated     8.23E+00 Mbytes, locked:    0 /   8
[tb_pin] Currently allocated     0.00E+00 Mbytes, locked:    0 /   0

     iteration # 74     ecut=    60.00 Ry     beta= 0.20
     Davidson diagonalization with overlap

---- Real-time Memory Report at c_bands before calling an iterative solver
          1839 MiB given to the printing process from OS
          1611 MiB allocation reported by mallinfo(arena+hblkhd)
         38864 MiB available memory on the node where the printing process lives
     GPU memory used/free/total (MiB): 3844 / 12436 / 16280
------------------
     ethr =  7.50E-05,  avg # of iterations =  1.0

     negative rho (up, down):  2.269E-02 2.278E-02

     total cpu time spent up to now is      360.0 secs

     WARNING: integrated charge=    68.00027243, expected=    68.00000000

     total energy              =    -516.22727202 Ry
     estimated scf accuracy    <       0.63253200 Ry

     total magnetization       =    14.03 Bohr mag/cell
     absolute magnetization    =    18.80 Bohr mag/cell
[tb_dev] Currently allocated     8.23E+00 Mbytes, locked:    0 /   8
[tb_pin] Currently allocated     0.00E+00 Mbytes, locked:    0 /   0

     iteration # 75     ecut=    60.00 Ry     beta= 0.20
     Davidson diagonalization with overlap

---- Real-time Memory Report at c_bands before calling an iterative solver
          1839 MiB given to the printing process from OS
          1611 MiB allocation reported by mallinfo(arena+hblkhd)
         38864 MiB available memory on the node where the printing process lives
     GPU memory used/free/total (MiB): 3844 / 12436 / 16280
------------------
     ethr =  7.50E-05,  avg # of iterations =  1.5

     negative rho (up, down):  2.285E-02 2.257E-02

     total cpu time spent up to now is      363.7 secs

     WARNING: integrated charge=    68.00006898, expected=    68.00000000

     total energy              =    -516.20184768 Ry
     estimated scf accuracy    <       0.62822138 Ry

     total magnetization       =    14.02 Bohr mag/cell
     absolute magnetization    =    18.87 Bohr mag/cell
[tb_dev] Currently allocated     8.23E+00 Mbytes, locked:    0 /   8
[tb_pin] Currently allocated     0.00E+00 Mbytes, locked:    0 /   0

     iteration # 76     ecut=    60.00 Ry     beta= 0.20
     Davidson diagonalization with overlap

---- Real-time Memory Report at c_bands before calling an iterative solver
          1839 MiB given to the printing process from OS
          1611 MiB allocation reported by mallinfo(arena+hblkhd)
         38864 MiB available memory on the node where the printing process lives
     GPU memory used/free/total (MiB): 3844 / 12436 / 16280
------------------
     ethr =  7.50E-05,  avg # of iterations =  5.1

     negative rho (up, down):  2.298E-02 2.245E-02

     total cpu time spent up to now is      368.4 secs

     WARNING: integrated charge=    67.99986086, expected=    68.00000000

     total energy              =    -516.27847362 Ry
     estimated scf accuracy    <       0.50159176 Ry

     total magnetization       =    14.13 Bohr mag/cell
     absolute magnetization    =    17.94 Bohr mag/cell
[tb_dev] Currently allocated     8.23E+00 Mbytes, locked:    0 /   8
[tb_pin] Currently allocated     0.00E+00 Mbytes, locked:    0 /   0

     iteration # 77     ecut=    60.00 Ry     beta= 0.20
     Davidson diagonalization with overlap

---- Real-time Memory Report at c_bands before calling an iterative solver
          1839 MiB given to the printing process from OS
          1611 MiB allocation reported by mallinfo(arena+hblkhd)
         38864 MiB available memory on the node where the printing process lives
     GPU memory used/free/total (MiB): 3844 / 12436 / 16280
------------------
     ethr =  7.50E-05,  avg # of iterations =  1.3

     negative rho (up, down):  2.303E-02 2.243E-02

     total cpu time spent up to now is      372.1 secs

     WARNING: integrated charge=    67.99970652, expected=    68.00000000

     total energy              =    -516.25511249 Ry
     estimated scf accuracy    <       0.42555474 Ry

     total magnetization       =    14.18 Bohr mag/cell
     absolute magnetization    =    17.90 Bohr mag/cell
[tb_dev] Currently allocated     8.23E+00 Mbytes, locked:    0 /   8
[tb_pin] Currently allocated     0.00E+00 Mbytes, locked:    0 /   0

     iteration # 78     ecut=    60.00 Ry     beta= 0.20
     Davidson diagonalization with overlap

---- Real-time Memory Report at c_bands before calling an iterative solver
          1839 MiB given to the printing process from OS
          1611 MiB allocation reported by mallinfo(arena+hblkhd)
         38864 MiB available memory on the node where the printing process lives
     GPU memory used/free/total (MiB): 3844 / 12436 / 16280
------------------
     ethr =  7.50E-05,  avg # of iterations =  1.7

     negative rho (up, down):  2.304E-02 2.242E-02

     total cpu time spent up to now is      375.8 secs

     WARNING: integrated charge=    67.99968583, expected=    68.00000000

     total energy              =    -516.25743893 Ry
     estimated scf accuracy    <       0.33392773 Ry

     total magnetization       =    14.31 Bohr mag/cell
     absolute magnetization    =    17.95 Bohr mag/cell
[tb_dev] Currently allocated     8.23E+00 Mbytes, locked:    0 /   8
[tb_pin] Currently allocated     0.00E+00 Mbytes, locked:    0 /   0

     iteration # 79     ecut=    60.00 Ry     beta= 0.20
     Davidson diagonalization with overlap

---- Real-time Memory Report at c_bands before calling an iterative solver
          1839 MiB given to the printing process from OS
          1611 MiB allocation reported by mallinfo(arena+hblkhd)
         38863 MiB available memory on the node where the printing process lives
     GPU memory used/free/total (MiB): 3844 / 12436 / 16280
------------------
     ethr =  7.50E-05,  avg # of iterations =  1.0

     negative rho (up, down):  2.305E-02 2.242E-02

     total cpu time spent up to now is      379.4 secs

     WARNING: integrated charge=    67.99966358, expected=    68.00000000

     total energy              =    -516.25443470 Ry
     estimated scf accuracy    <       0.32984603 Ry

     total magnetization       =    14.31 Bohr mag/cell
     absolute magnetization    =    17.94 Bohr mag/cell
[tb_dev] Currently allocated     8.23E+00 Mbytes, locked:    0 /   8
[tb_pin] Currently allocated     0.00E+00 Mbytes, locked:    0 /   0

     iteration # 80     ecut=    60.00 Ry     beta= 0.20
     Davidson diagonalization with overlap

---- Real-time Memory Report at c_bands before calling an iterative solver
          1839 MiB given to the printing process from OS
          1611 MiB allocation reported by mallinfo(arena+hblkhd)
         38863 MiB available memory on the node where the printing process lives
     GPU memory used/free/total (MiB): 3844 / 12436 / 16280
------------------
     ethr =  7.50E-05,  avg # of iterations =  1.0

     negative rho (up, down):  2.304E-02 2.243E-02

     total cpu time spent up to now is      382.9 secs

     WARNING: integrated charge=    67.99966440, expected=    68.00000000

     total energy              =    -516.25459741 Ry
     estimated scf accuracy    <       0.34906795 Ry

     total magnetization       =    14.50 Bohr mag/cell
     absolute magnetization    =    18.14 Bohr mag/cell

     End of self-consistent calculation

     convergence NOT achieved after  80 iterations: stopping

     Writing config to output data dir ./out/aiida.save/
 
     init_run     :     11.02s CPU      2.90s WALL (       1 calls)
     electrons    :    637.04s CPU    379.42s WALL (       1 calls)

     Called by init_run:
     wfcinit      :      0.12s CPU      0.12s WALL (       1 calls)
                                        0.12s GPU  (       1 calls)
     potinit      :      0.88s CPU      0.25s WALL (       1 calls)
     hinit0       :      7.35s CPU      1.46s WALL (       1 calls)

     Called by electrons:
     c_bands      :    252.62s CPU    268.48s WALL (      80 calls)
     sum_band     :     62.48s CPU     64.60s WALL (      80 calls)
     v_of_rho     :     77.02s CPU      7.03s WALL (      81 calls)
     v_h          :     11.40s CPU      1.00s WALL (      81 calls)
     v_xc         :     65.61s CPU      6.03s WALL (      81 calls)
     newd         :    125.85s CPU     11.86s WALL (      81 calls)
                                       11.86s GPU  (      81 calls)
     mix_rho      :     85.45s CPU      8.21s WALL (      80 calls)

     Called by c_bands:
     init_us_2    :     11.11s CPU     11.94s WALL (    6400 calls)
     init_us_2:gp :     10.96s CPU     11.82s WALL (    6400 calls)
     cegterg      :    211.07s CPU    197.55s WALL (    3200 calls)

     Called by sum_band:
     sum_band:wei :      0.18s CPU      0.18s WALL (      80 calls)
                                        0.18s GPU  (      80 calls)
     sum_band:loo :     46.64s CPU     48.63s WALL (      80 calls)
                                       48.63s GPU  (      80 calls)
     sum_band:buf :     11.65s CPU     11.91s WALL (    3200 calls)
                                       11.89s GPU  (    3200 calls)
     sum_band:ini :      4.48s CPU      5.09s WALL (    3200 calls)
                                        5.07s GPU  (    3200 calls)
     sum_band:cal :      0.11s CPU      1.85s WALL (    3200 calls)
                                        1.20s GPU  (    3200 calls)
     sum_band:bec :      0.93s CPU      1.00s WALL (    3200 calls)
                                        0.98s GPU  (    3200 calls)
     addusdens    :     10.69s CPU     10.81s WALL (      80 calls)
                                       10.81s GPU  (      80 calls)
     addusd:skk   :      0.05s CPU      0.05s WALL (     240 calls)
                                        0.05s GPU  (     240 calls)

     Called by *egterg:
     cdiaghg      :     35.08s CPU     39.12s WALL (   12468 calls)
                                       39.03s GPU  (   12468 calls)
     cegterg:over :      3.84s CPU      3.98s WALL (    9308 calls)
     cegterg:upda :      4.48s CPU      4.17s WALL (    9308 calls)
     cegterg:last :      2.11s CPU      2.16s WALL (    4806 calls)
     h_psi        :    152.86s CPU    136.55s WALL (   12508 calls)
                                      136.34s GPU  (   12508 calls)
     s_psi        :      2.09s CPU      5.04s WALL (   12508 calls)
                                        4.63s GPU  (   12508 calls)
     g_psi        :      0.08s CPU      0.50s WALL (    9308 calls)
                                        0.44s GPU  (    9308 calls)

     Called by h_psi:
     h_psi:calbec :      0.50s CPU      3.96s WALL (   12508 calls)
                                        3.88s GPU  (   12508 calls)
     vloc_psi     :    139.55s CPU    125.22s WALL (   12508 calls)
                                      125.14s GPU  (   12508 calls)
     add_vuspsi   :      3.31s CPU      5.95s WALL (   12508 calls)
                                        5.88s GPU  (   12508 calls)

     General routines
     calbec       :      0.45s CPU      0.44s WALL (   15708 calls)
     fft          :      3.98s CPU      0.92s WALL (    2023 calls)
                                        0.70s GPU  (    1861 calls)
     ffts         :      0.29s CPU      0.11s WALL (     322 calls)
                                        0.04s GPU  (     160 calls)
     fftw         :      2.47s CPU    124.08s WALL (   60442 calls)
                                      123.66s GPU  (   60442 calls)
     interpolate  :     12.21s CPU      1.06s WALL (     162 calls)
     davcio       :      0.05s CPU      1.01s WALL (      98 calls)
 
     Parallel routines
 
     PWSCF        :  10m50.78s CPU   6m23.87s WALL

 
   This run was terminated on:  17:57:49  23Oct2023            

=------------------------------------------------------------------------------=
   JOB DONE.
=------------------------------------------------------------------------------=
