
     Program PWSCF v.7.2 starts on 19Dec2023 at 23: 9:49 
        Git branch: develop
        Last git commit: 9055681be6fc8200e6fffe76ed5fda34c2696339
        Last git commit date: Wed Nov 8 16:29:39 2023 +0000
        Last git commit subject: Merge branch 'calbec_fix' into 'develop'

     This program is part of the open-source Quantum ESPRESSO suite
     for quantum simulation of materials; please cite
         "P. Giannozzi et al., J. Phys.:Condens. Matter 21 395502 (2009);
         "P. Giannozzi et al., J. Phys.:Condens. Matter 29 465901 (2017);
         "P. Giannozzi et al., J. Chem. Phys. 152 154105 (2020);
          URL http://www.quantum-espresso.org", 
     in publications or presentations arising from this work. More details at
     http://www.quantum-espresso.org/quote

     Parallel version (MPI), running on    56 processors

     MPI processes distributed on     1 nodes
     491639 MiB available memory on the printing compute node when the environment starts

     Reading input from aiida.in

     Current dimensions of program PWSCF are:
     Max number of different atomic species (ntypx) = 10
     Max number of k-points (npk) =  40000
     Max angular momentum in pseudopotentials (lmaxx) =  4
     file Ba.pbesol-spn-kjpaw_psl.1.0.0.UPF: wavefunction(s)  5S 6S renormalized
     file Nb.pbesol-spn-kjpaw_psl.0.3.0.UPF: wavefunction(s)  4S 4P renormalized
     file O.pbesol-n-kjpaw_psl.0.1.UPF: wavefunction(s)  2P renormalized
     Message from routine setup:
     using ibrav=0 with symmetry is DISCOURAGED, use correct ibrav instead

     K-points division:     npool     =       7
     R & G space division:  proc/nbgrp/npool/nimage =       8
     Subspace diagonalization in iterative solution of the eigenvalue problem:
     a serial algorithm will be used


     Parallelization info
     --------------------
     sticks:   dense  smooth     PW     G-vecs:    dense   smooth      PW
     Min         568     284     99                15018     5314    1110
     Max         569     285    100                15019     5315    1111
     Sum        4551    2277    797               120147    42513    8885

     Using Slab Decomposition



     bravais-lattice index     =            0
     lattice parameter (alat)  =      12.6669  a.u.
     unit-cell volume          =     889.9875 (a.u.)^3
     number of atoms/cell      =           10
     number of atomic types    =            3
     number of electrons       =        85.00
     number of Kohn-Sham states=           56
     kinetic-energy cutoff     =      50.0000  Ry
     charge density cutoff     =     400.0000  Ry
     scf convergence threshold =      2.0E-09
     mixing beta               =       0.4000
     number of iterations used =            8  plain     mixing
     Exchange-correlation= SLA  PW   PSX  PSC
                           (   1   4  10   8   0   0   0)

     celldm(1)=  12.666889  celldm(2)=   0.000000  celldm(3)=   0.000000
     celldm(4)=   0.000000  celldm(5)=   0.000000  celldm(6)=   0.000000

     crystal axes: (cart. coord. in units of alat)
               a(1) = (   0.852846   0.492391   0.173797 )  
               a(2) = (  -0.852846   0.492391   0.173797 )  
               a(3) = (  -0.000000  -0.984781   0.173797 )  

     reciprocal axes: (cart. coord. in units 2 pi/alat)
               b(1) = (  0.586272  0.338485  1.917946 )  
               b(2) = ( -0.586272  0.338485  1.917946 )  
               b(3) = ( -0.000000 -0.676969  1.917946 )  


     PseudoPot. # 1 for Ba read from file:
     ./pseudo/Ba.pbesol-spn-kjpaw_psl.1.0.0.UPF
     MD5 check sum: f28c4a63d325c1a0d00fd3a4f19b8d73
     Pseudo is Projector augmented-wave + core cor, Zval = 10.0
     Generated using "atomic" code by A. Dal Corso  v.6.0 svn rev. 13079
     Shape of augmentation charge: PSQ
     Using radial grid of 1251 points,  7 beta functions with: 
                l(1) =   0
                l(2) =   0
                l(3) =   0
                l(4) =   1
                l(5) =   1
                l(6) =   2
                l(7) =   2
     Q(r) pseudized with 0 coefficients 


     PseudoPot. # 2 for Nb read from file:
     ./pseudo/Nb.pbesol-spn-kjpaw_psl.0.3.0.UPF
     MD5 check sum: 3501bca1474143575298708b2d32ca28
     Pseudo is Projector augmented-wave + core cor, Zval = 13.0
     Generated using "atomic" code by A. Dal Corso  v.6.0 svn rev. 13079
     Shape of augmentation charge: PSQ
     Using radial grid of 1227 points,  6 beta functions with: 
                l(1) =   0
                l(2) =   0
                l(3) =   1
                l(4) =   1
                l(5) =   2
                l(6) =   2
     Q(r) pseudized with 0 coefficients 


     PseudoPot. # 3 for O  read from file:
     ./pseudo/O.pbesol-n-kjpaw_psl.0.1.UPF
     MD5 check sum: 81d73d1479e654e5638b0319f0d6c2c7
     Pseudo is Projector augmented-wave + core cor, Zval =  6.0
     Generated using "atomic" code by A. Dal Corso  v.6.0 svn rev. 13079
     Shape of augmentation charge: BESSEL
     Using radial grid of 1095 points,  4 beta functions with: 
                l(1) =   0
                l(2) =   0
                l(3) =   1
                l(4) =   1
     Q(r) pseudized with 0 coefficients 


     atomic species   valence    mass     pseudopotential
     Ba               10.00   137.32700     Ba( 1.00)
     Nb               13.00    92.90638     Nb( 1.00)
     O                 6.00    15.99940     O ( 1.00)

     Starting magnetic structure 
     atomic species   magnetization
     Ba              0.100
     Nb              0.385
     O               0.100

      6 Sym. Ops. (no inversion) found


                                    s                        frac. trans.

      isym =  1     identity                                     

 cryst.   s( 1) = (     1          0          0      )
                  (     0          1          0      )
                  (     0          0          1      )

 cart.    s( 1) = (  1.0000000 -0.0000000 -0.0000000 )
                  ( -0.0000000  1.0000000  0.0000000 )
                  (  0.0000000  0.0000000  1.0000000 )


      isym =  2     120 deg rotation - cryst. axis [0,0,1]       

 cryst.   s( 2) = (     0          1          0      )
                  (     0          0          1      )
                  (     1          0          0      )

 cart.    s( 2) = ( -0.5000000 -0.8660254  0.0000000 )
                  (  0.8660254 -0.5000000  0.0000000 )
                  (  0.0000000 -0.0000000  1.0000000 )


      isym =  3     120 deg rotation - cryst. axis [0,0,-1]      

 cryst.   s( 3) = (     0          0          1      )
                  (     1          0          0      )
                  (     0          1          0      )

 cart.    s( 3) = ( -0.5000000  0.8660254 -0.0000000 )
                  ( -0.8660254 -0.5000000  0.0000000 )
                  ( -0.0000000  0.0000000  1.0000000 )


      isym =  4     inv. 180 deg rotation - cart. axis [1,0,0]   

 cryst.   s( 4) = (     0          1          0      )
                  (     1          0          0      )
                  (     0          0          1      )

 cart.    s( 4) = ( -1.0000000 -0.0000000 -0.0000000 )
                  (  0.0000000  1.0000000  0.0000000 )
                  ( -0.0000000  0.0000000  1.0000000 )


      isym =  5     inv. 180 deg rotation - cryst. axis [0,1,0]  

 cryst.   s( 5) = (     1          0          0      )
                  (     0          0          1      )
                  (     0          1          0      )

 cart.    s( 5) = (  0.5000000  0.8660254 -0.0000000 )
                  (  0.8660254 -0.5000000  0.0000000 )
                  (  0.0000000  0.0000000  1.0000000 )


      isym =  6     inv. 180 deg rotation - cryst. axis [1,1,0]  

 cryst.   s( 6) = (     0          0          1      )
                  (     0          1          0      )
                  (     1          0          0      )

 cart.    s( 6) = (  0.5000000 -0.8660254  0.0000000 )
                  ( -0.8660254 -0.5000000  0.0000000 )
                  ( -0.0000000 -0.0000000  1.0000000 )


   Cartesian axes

     site n.     atom                  positions (alat units)
         1        Ba     tau(   1) = (   0.0000000   0.0000000  -0.0000000  )
         2        Nb     tau(   2) = (  -0.0000000   0.4822475   0.1751179  )
         3        Nb     tau(   3) = (  -0.4352072   1.2360485   0.1751179  )
         4        Nb     tau(   4) = (   0.4352072   0.2512670   0.3489150  )
         5        O      tau(   5) = (  -0.2225075   1.3338373   0.3412331  )
         6        O      tau(   6) = (   0.2225075   0.3490558   0.5150302  )
         7        O      tau(   7) = (   0.1910375   0.6175565   0.3412331  )
         8        O      tau(   8) = (   0.6618083   0.1251657   0.1674361  )
         9        O      tau(   9) = (   0.4393009   0.5105600   0.1674361  )
        10        O      tau(  10) = (   0.4135449   0.0181692   0.5150302  )

   Crystallographic axes

     site n.     atom                  positions (cryst. coord.)
         1        Ba     tau(   1) = (  0.0000000  0.0000000 -0.0000000  )
         2        Nb     tau(   2) = (  0.4991000  0.4991000  0.0094000  )
         3        Nb     tau(   3) = (  0.4991000  1.0094000 -0.5009000  )
         4        Nb     tau(   4) = (  1.0094000  0.4991000  0.4991000  )
         5        O      tau(   5) = (  0.9755000  1.2364000 -0.2485000  )
         6        O      tau(   6) = (  1.2364000  0.9755000  0.7515000  )
         7        O      tau(   7) = (  0.9755000  0.7515000  0.2364000  )
         8        O      tau(   8) = (  0.7515000 -0.0245000  0.2364000  )
         9        O      tau(   9) = (  0.7515000  0.2364000 -0.0245000  )
        10        O      tau(  10) = (  1.2364000  0.7515000  0.9755000  )

     number of k points=   231  Marzari-Vanderbilt smearing, width (Ry)=  0.0200
                       cart. coord. in units 2pi/alat
        k(    1) = (   0.0000000   0.0000000   0.0000000), wk =   0.0004552
        k(    2) = (  -0.0000000  -0.0520745   0.1475343), wk =   0.0027310
        k(    3) = (  -0.0000000  -0.1041491   0.2950686), wk =   0.0027310
        k(    4) = (  -0.0000000  -0.1562236   0.4426029), wk =   0.0027310
        k(    5) = (  -0.0000000  -0.2082982   0.5901372), wk =   0.0027310
        k(    6) = (  -0.0000000  -0.2603727   0.7376715), wk =   0.0027310
        k(    7) = (  -0.0000000  -0.3124473   0.8852058), wk =   0.0027310
        k(    8) = (  -0.0450979  -0.0260373   0.2950686), wk =   0.0027310
        k(    9) = (  -0.0450979  -0.0781118   0.4426029), wk =   0.0054620
        k(   10) = (  -0.0450979  -0.1301864   0.5901372), wk =   0.0054620
        k(   11) = (  -0.0450979  -0.1822609   0.7376715), wk =   0.0054620
        k(   12) = (  -0.0450979  -0.2343355   0.8852058), wk =   0.0054620
        k(   13) = (  -0.0450979  -0.2864100   1.0327401), wk =   0.0054620
        k(   14) = (  -0.0450979   0.3384846  -0.7376715), wk =   0.0054620
        k(   15) = (  -0.0450979   0.2864100  -0.5901372), wk =   0.0054620
        k(   16) = (  -0.0450979   0.2343355  -0.4426029), wk =   0.0054620
        k(   17) = (  -0.0450979   0.1822609  -0.2950686), wk =   0.0054620
        k(   18) = (  -0.0450979   0.1301864  -0.1475343), wk =   0.0054620
        k(   19) = (  -0.0450979   0.0781118  -0.0000000), wk =   0.0027310
        k(   20) = (  -0.0901958  -0.0520745   0.5901372), wk =   0.0027310
        k(   21) = (  -0.0901958  -0.1041491   0.7376715), wk =   0.0054620
        k(   22) = (  -0.0901958  -0.1562236   0.8852058), wk =   0.0054620
        k(   23) = (  -0.0901958  -0.2082982   1.0327401), wk =   0.0054620
        k(   24) = (  -0.0901958  -0.2603727   1.1802744), wk =   0.0054620
        k(   25) = (  -0.0901958   0.3645218  -0.5901372), wk =   0.0054620
        k(   26) = (  -0.0901958   0.3124473  -0.4426029), wk =   0.0054620
        k(   27) = (  -0.0901958   0.2603727  -0.2950686), wk =   0.0054620
        k(   28) = (  -0.0901958   0.2082982  -0.1475343), wk =   0.0054620
        k(   29) = (  -0.0901958   0.1562236  -0.0000000), wk =   0.0027310
        k(   30) = (  -0.1352936  -0.0781118   0.8852058), wk =   0.0027310
        k(   31) = (  -0.1352936  -0.1301864   1.0327401), wk =   0.0054620
        k(   32) = (  -0.1352936  -0.1822609   1.1802744), wk =   0.0054620
        k(   33) = (  -0.1352936  -0.2343355   1.3278087), wk =   0.0054620
        k(   34) = (  -0.1352936   0.3905591  -0.4426029), wk =   0.0054620
        k(   35) = (  -0.1352936   0.3384846  -0.2950686), wk =   0.0054620
        k(   36) = (  -0.1352936   0.2864100  -0.1475343), wk =   0.0054620
        k(   37) = (  -0.1352936   0.2343355  -0.0000000), wk =   0.0027310
        k(   38) = (  -0.1803915  -0.1041491   1.1802744), wk =   0.0027310
        k(   39) = (  -0.1803915  -0.1562236   1.3278087), wk =   0.0054620
        k(   40) = (  -0.1803915  -0.2082982   1.4753430), wk =   0.0054620
        k(   41) = (  -0.1803915   0.4165964  -0.2950686), wk =   0.0054620
        k(   42) = (  -0.1803915   0.3645218  -0.1475343), wk =   0.0054620
        k(   43) = (  -0.1803915   0.3124473  -0.0000000), wk =   0.0027310
        k(   44) = (  -0.2254894  -0.1301864   1.4753430), wk =   0.0027310
        k(   45) = (  -0.2254894  -0.1822609   1.6228773), wk =   0.0054620
        k(   46) = (  -0.2254894   0.4426337  -0.1475343), wk =   0.0054620
        k(   47) = (  -0.2254894   0.3905591  -0.0000000), wk =   0.0027310
        k(   48) = (  -0.2705873  -0.1562236   1.7704116), wk =   0.0027310
        k(   49) = (  -0.2705873   0.4686709  -0.0000000), wk =   0.0027310
        k(   50) = (   0.0000000   0.0000000   0.4426029), wk =   0.0009103
        k(   51) = (   0.0000000  -0.0520745   0.5901372), wk =   0.0027310
        k(   52) = (   0.0000000  -0.1041491   0.7376715), wk =   0.0027310
        k(   53) = (   0.0000000  -0.1562236   0.8852058), wk =   0.0027310
        k(   54) = (   0.0000000  -0.2082982   1.0327401), wk =   0.0027310
        k(   55) = (  -0.0000000  -0.2603727   1.1802744), wk =   0.0027310
        k(   56) = (   0.0000000   0.3645218  -0.5901372), wk =   0.0027310
        k(   57) = (   0.0000000   0.3124473  -0.4426029), wk =   0.0027310
        k(   58) = (   0.0000000   0.2603727  -0.2950686), wk =   0.0027310
        k(   59) = (   0.0000000   0.2082982  -0.1475343), wk =   0.0027310
        k(   60) = (   0.0000000   0.1562236  -0.0000000), wk =   0.0027310
        k(   61) = (   0.0000000   0.1041491   0.1475343), wk =   0.0027310
        k(   62) = (  -0.0450979  -0.0260373   0.7376715), wk =   0.0027310
        k(   63) = (  -0.0450979  -0.0781118   0.8852058), wk =   0.0054620
        k(   64) = (  -0.0450979  -0.1301864   1.0327401), wk =   0.0054620
        k(   65) = (  -0.0450979  -0.1822609   1.1802744), wk =   0.0054620
        k(   66) = (  -0.0450979  -0.2343355   1.3278087), wk =   0.0054620
        k(   67) = (  -0.0450979   0.3905591  -0.4426029), wk =   0.0054620
        k(   68) = (  -0.0450979   0.3384846  -0.2950686), wk =   0.0054620
        k(   69) = (  -0.0450979   0.2864100  -0.1475343), wk =   0.0054620
        k(   70) = (  -0.0450979   0.2343355  -0.0000000), wk =   0.0054620
        k(   71) = (  -0.0450979   0.1822609   0.1475343), wk =   0.0054620
        k(   72) = (  -0.0450979   0.1301864   0.2950686), wk =   0.0054620
        k(   73) = (  -0.0901958  -0.0520745   1.0327401), wk =   0.0027310
        k(   74) = (  -0.0901958  -0.1041491   1.1802744), wk =   0.0054620
        k(   75) = (  -0.0901958  -0.1562236   1.3278087), wk =   0.0054620
        k(   76) = (  -0.0901958  -0.2082982   1.4753430), wk =   0.0054620
        k(   77) = (  -0.0901958   0.4165964  -0.2950686), wk =   0.0054620
        k(   78) = (  -0.0901958   0.3645218  -0.1475343), wk =   0.0054620
        k(   79) = (  -0.0901958   0.3124473  -0.0000000), wk =   0.0054620
        k(   80) = (  -0.0901958   0.2603727   0.1475343), wk =   0.0054620
        k(   81) = (  -0.0901958   0.2082982   0.2950686), wk =   0.0054620
        k(   82) = (  -0.0901958   0.1562236   0.4426029), wk =   0.0054620
        k(   83) = (  -0.1352936  -0.0781118   1.3278087), wk =   0.0027310
        k(   84) = (  -0.1352936  -0.1301864   1.4753430), wk =   0.0054620
        k(   85) = (  -0.1352936  -0.1822609   1.6228773), wk =   0.0054620
        k(   86) = (  -0.1352936   0.4426337  -0.1475343), wk =   0.0054620
        k(   87) = (  -0.1352936   0.3905591  -0.0000000), wk =   0.0054620
        k(   88) = (  -0.1352936   0.3384846   0.1475343), wk =   0.0054620
        k(   89) = (  -0.1352936   0.2864100   0.2950686), wk =   0.0054620
        k(   90) = (  -0.1352936   0.2343355   0.4426029), wk =   0.0054620
        k(   91) = (  -0.1352936   0.1822609   0.5901372), wk =   0.0054620
        k(   92) = (  -0.1803915  -0.1041491   1.6228773), wk =   0.0027310
        k(   93) = (  -0.1803915  -0.1562236   1.7704116), wk =   0.0054620
        k(   94) = (  -0.1803915   0.4686709  -0.0000000), wk =   0.0054620
        k(   95) = (  -0.1803915   0.4165964   0.1475343), wk =   0.0054620
        k(   96) = (  -0.1803915   0.3645218   0.2950686), wk =   0.0054620
        k(   97) = (  -0.1803915   0.3124473   0.4426029), wk =   0.0054620
        k(   98) = (  -0.1803915   0.2603727   0.5901372), wk =   0.0054620
        k(   99) = (  -0.1803915   0.2082982   0.7376715), wk =   0.0054620
        k(  100) = (  -0.2254894  -0.1301864   1.9179458), wk =   0.0027310
        k(  101) = (  -0.2254894   0.4947082   0.1475343), wk =   0.0054620
        k(  102) = (  -0.2254894   0.4426337   0.2950686), wk =   0.0054620
        k(  103) = (  -0.2254894   0.3905591   0.4426029), wk =   0.0054620
        k(  104) = (  -0.2254894   0.3384846   0.5901372), wk =   0.0054620
        k(  105) = (  -0.2254894   0.2864100   0.7376715), wk =   0.0054620
        k(  106) = (  -0.2254894   0.2343355   0.8852058), wk =   0.0054620
        k(  107) = (   0.3156852   0.1822609  -1.6228773), wk =   0.0027310
        k(  108) = (   0.3156852   0.1301864  -1.4753430), wk =   0.0054620
        k(  109) = (   0.3156852   0.0781118  -1.3278087), wk =   0.0054620
        k(  110) = (   0.3156852   0.0260373  -1.1802744), wk =   0.0054620
        k(  111) = (   0.3156852  -0.0260373  -1.0327401), wk =   0.0054620
        k(  112) = (   0.2705873   0.1562236  -1.3278087), wk =   0.0027310
        k(  113) = (   0.2705873   0.1041491  -1.1802744), wk =   0.0054620
        k(  114) = (   0.2705873   0.0520745  -1.0327401), wk =   0.0054620
        k(  115) = (   0.2705873   0.0000000  -0.8852058), wk =   0.0054620
        k(  116) = (   0.2254894   0.1301864  -1.0327401), wk =   0.0027310
        k(  117) = (   0.2254894   0.0781118  -0.8852058), wk =   0.0054620
        k(  118) = (   0.2254894   0.0260373  -0.7376715), wk =   0.0054620
        k(  119) = (   0.1803915   0.1041491  -0.7376715), wk =   0.0027310
        k(  120) = (   0.1803915   0.0520745  -0.5901372), wk =   0.0054620
        k(  121) = (   0.1352936   0.0781118  -0.4426029), wk =   0.0027310
        k(  122) = (   0.0000000   0.0000000   0.8852058), wk =   0.0009103
        k(  123) = (   0.0000000  -0.0520745   1.0327401), wk =   0.0027310
        k(  124) = (   0.0000000  -0.1041491   1.1802744), wk =   0.0027310
        k(  125) = (   0.0000000  -0.1562236   1.3278087), wk =   0.0027310
        k(  126) = (   0.0000000  -0.2082982   1.4753430), wk =   0.0027310
        k(  127) = (   0.0000000   0.4165964  -0.2950686), wk =   0.0027310
        k(  128) = (   0.0000000   0.3645218  -0.1475343), wk =   0.0027310
        k(  129) = (   0.0000000   0.3124473  -0.0000000), wk =   0.0027310
        k(  130) = (   0.0000000   0.2603727   0.1475343), wk =   0.0027310
        k(  131) = (   0.0000000   0.2082982   0.2950686), wk =   0.0027310
        k(  132) = (  -0.0450979  -0.0260373   1.1802744), wk =   0.0027310
        k(  133) = (  -0.0450979  -0.0781118   1.3278087), wk =   0.0054620
        k(  134) = (  -0.0450979  -0.1301864   1.4753430), wk =   0.0054620
        k(  135) = (  -0.0450979  -0.1822609   1.6228773), wk =   0.0054620
        k(  136) = (  -0.0450979   0.4426337  -0.1475343), wk =   0.0054620
        k(  137) = (  -0.0450979   0.3905591  -0.0000000), wk =   0.0054620
        k(  138) = (  -0.0450979   0.3384846   0.1475343), wk =   0.0054620
        k(  139) = (  -0.0450979   0.2864100   0.2950686), wk =   0.0054620
        k(  140) = (  -0.0450979   0.2343355   0.4426029), wk =   0.0054620
        k(  141) = (  -0.0901958  -0.0520745   1.4753430), wk =   0.0027310
        k(  142) = (  -0.0901958  -0.1041491   1.6228773), wk =   0.0054620
        k(  143) = (  -0.0901958  -0.1562236   1.7704116), wk =   0.0054620
        k(  144) = (  -0.0901958   0.4686709  -0.0000000), wk =   0.0054620
        k(  145) = (  -0.0901958   0.4165964   0.1475343), wk =   0.0054620
        k(  146) = (  -0.0901958   0.3645218   0.2950686), wk =   0.0054620
        k(  147) = (  -0.0901958   0.3124473   0.4426029), wk =   0.0054620
        k(  148) = (  -0.0901958   0.2603727   0.5901372), wk =   0.0054620
        k(  149) = (  -0.1352936  -0.0781118   1.7704116), wk =   0.0027310
        k(  150) = (  -0.1352936  -0.1301864   1.9179458), wk =   0.0054620
        k(  151) = (  -0.1352936   0.4947082   0.1475343), wk =   0.0054620
        k(  152) = (  -0.1352936   0.4426337   0.2950686), wk =   0.0054620
        k(  153) = (  -0.1352936   0.3905591   0.4426029), wk =   0.0054620
        k(  154) = (  -0.1352936   0.3384846   0.5901372), wk =   0.0054620
        k(  155) = (  -0.1352936   0.2864100   0.7376715), wk =   0.0054620
        k(  156) = (  -0.1803915  -0.1041491   2.0654801), wk =   0.0027310
        k(  157) = (  -0.1803915   0.5207455   0.2950686), wk =   0.0054620
        k(  158) = (  -0.1803915   0.4686709   0.4426029), wk =   0.0054620
        k(  159) = (  -0.1803915   0.4165964   0.5901372), wk =   0.0054620
        k(  160) = (  -0.1803915   0.3645218   0.7376715), wk =   0.0054620
        k(  161) = (  -0.1803915   0.3124473   0.8852058), wk =   0.0054620
        k(  162) = (   0.3607831   0.2082982  -1.4753430), wk =   0.0027310
        k(  163) = (   0.3607831   0.1562236  -1.3278087), wk =   0.0054620
        k(  164) = (   0.3607831   0.1041491  -1.1802744), wk =   0.0054620
        k(  165) = (   0.3607831   0.0520745  -1.0327401), wk =   0.0054620
        k(  166) = (   0.3156852   0.1822609  -1.1802744), wk =   0.0027310
        k(  167) = (   0.3156852   0.1301864  -1.0327401), wk =   0.0054620
        k(  168) = (   0.3156852   0.0781118  -0.8852058), wk =   0.0054620
        k(  169) = (   0.2705873   0.1562236  -0.8852058), wk =   0.0027310
        k(  170) = (   0.2705873   0.1041491  -0.7376715), wk =   0.0054620
        k(  171) = (   0.2254894   0.1301864  -0.5901372), wk =   0.0027310
        k(  172) = (  -0.0000000   0.0000000   1.3278087), wk =   0.0009103
        k(  173) = (  -0.0000000  -0.0520745   1.4753430), wk =   0.0027310
        k(  174) = (  -0.0000000  -0.1041491   1.6228773), wk =   0.0027310
        k(  175) = (  -0.0000000  -0.1562236   1.7704116), wk =   0.0027310
        k(  176) = (  -0.0000000   0.4686709  -0.0000000), wk =   0.0027310
        k(  177) = (  -0.0000000   0.4165964   0.1475343), wk =   0.0027310
        k(  178) = (  -0.0000000   0.3645218   0.2950686), wk =   0.0027310
        k(  179) = (  -0.0000000   0.3124473   0.4426029), wk =   0.0027310
        k(  180) = (  -0.0450979  -0.0260373   1.6228773), wk =   0.0027310
        k(  181) = (  -0.0450979  -0.0781118   1.7704116), wk =   0.0054620
        k(  182) = (  -0.0450979  -0.1301864   1.9179458), wk =   0.0054620
        k(  183) = (  -0.0450979   0.4947082   0.1475343), wk =   0.0054620
        k(  184) = (  -0.0450979   0.4426337   0.2950686), wk =   0.0054620
        k(  185) = (  -0.0450979   0.3905591   0.4426029), wk =   0.0054620
        k(  186) = (  -0.0450979   0.3384846   0.5901372), wk =   0.0054620
        k(  187) = (  -0.0901958  -0.0520745   1.9179458), wk =   0.0027310
        k(  188) = (  -0.0901958  -0.1041491   2.0654801), wk =   0.0054620
        k(  189) = (  -0.0901958   0.5207455   0.2950686), wk =   0.0054620
        k(  190) = (  -0.0901958   0.4686709   0.4426029), wk =   0.0054620
        k(  191) = (  -0.0901958   0.4165964   0.5901372), wk =   0.0054620
        k(  192) = (  -0.0901958   0.3645218   0.7376715), wk =   0.0054620
        k(  193) = (  -0.1352936  -0.0781118   2.2130144), wk =   0.0027310
        k(  194) = (  -0.1352936   0.5467828   0.4426029), wk =   0.0054620
        k(  195) = (  -0.1352936   0.4947082   0.5901372), wk =   0.0054620
        k(  196) = (  -0.1352936   0.4426337   0.7376715), wk =   0.0054620
        k(  197) = (  -0.1352936   0.3905591   0.8852058), wk =   0.0054620
        k(  198) = (   0.4058809   0.2343355  -1.3278087), wk =   0.0027310
        k(  199) = (   0.4058809   0.1822609  -1.1802744), wk =   0.0054620
        k(  200) = (   0.4058809   0.1301864  -1.0327401), wk =   0.0054620
        k(  201) = (   0.3607831   0.2082982  -1.0327401), wk =   0.0027310
        k(  202) = (   0.3607831   0.1562236  -0.8852058), wk =   0.0054620
        k(  203) = (   0.3156852   0.1822609  -0.7376715), wk =   0.0027310
        k(  204) = (   0.0000000   0.0000000   1.7704116), wk =   0.0009103
        k(  205) = (   0.0000000  -0.0520745   1.9179458), wk =   0.0027310
        k(  206) = (   0.0000000  -0.1041491   2.0654801), wk =   0.0027310
        k(  207) = (   0.0000000   0.5207455   0.2950686), wk =   0.0027310
        k(  208) = (   0.0000000   0.4686709   0.4426029), wk =   0.0027310
        k(  209) = (   0.0000000   0.4165964   0.5901372), wk =   0.0027310
        k(  210) = (  -0.0450979  -0.0260373   2.0654801), wk =   0.0027310
        k(  211) = (  -0.0450979  -0.0781118   2.2130144), wk =   0.0054620
        k(  212) = (  -0.0450979   0.5467828   0.4426029), wk =   0.0054620
        k(  213) = (  -0.0450979   0.4947082   0.5901372), wk =   0.0054620
        k(  214) = (  -0.0450979   0.4426337   0.7376715), wk =   0.0054620
        k(  215) = (  -0.0901958  -0.0520745   2.3605487), wk =   0.0027310
        k(  216) = (  -0.0901958   0.5728200   0.5901372), wk =   0.0054620
        k(  217) = (  -0.0901958   0.5207455   0.7376715), wk =   0.0054620
        k(  218) = (  -0.0901958   0.4686709   0.8852058), wk =   0.0054620
        k(  219) = (   0.4509788   0.2603727  -1.1802744), wk =   0.0027310
        k(  220) = (   0.4509788   0.2082982  -1.0327401), wk =   0.0054620
        k(  221) = (   0.4058809   0.2343355  -0.8852058), wk =   0.0027310
        k(  222) = (   0.0000000   0.0000000   2.2130144), wk =   0.0009103
        k(  223) = (   0.0000000  -0.0520745   2.3605487), wk =   0.0027310
        k(  224) = (   0.0000000   0.5728200   0.5901372), wk =   0.0027310
        k(  225) = (   0.0000000   0.5207455   0.7376715), wk =   0.0027310
        k(  226) = (  -0.0450979  -0.0260373   2.5080830), wk =   0.0027310
        k(  227) = (  -0.0450979   0.5988573   0.7376715), wk =   0.0054620
        k(  228) = (  -0.0450979   0.5467828   0.8852058), wk =   0.0054620
        k(  229) = (   0.4960767   0.2864100  -1.0327401), wk =   0.0027310
        k(  230) = (  -0.0000000   0.0000000   2.6556173), wk =   0.0009103
        k(  231) = (  -0.0000000   0.6248946   0.8852058), wk =   0.0027310

                       cryst. coord.
        k(    1) = (   0.0000000   0.0000000   0.0000000), wk =   0.0004552
        k(    2) = (   0.0000000   0.0000000   0.0769231), wk =   0.0027310
        k(    3) = (   0.0000000   0.0000000   0.1538462), wk =   0.0027310
        k(    4) = (  -0.0000000  -0.0000000   0.2307692), wk =   0.0027310
        k(    5) = (   0.0000000   0.0000000   0.3076923), wk =   0.0027310
        k(    6) = (  -0.0000000  -0.0000000   0.3846154), wk =   0.0027310
        k(    7) = (  -0.0000000  -0.0000000   0.4615385), wk =   0.0027310
        k(    8) = (   0.0000000   0.0769231   0.0769231), wk =   0.0027310
        k(    9) = (   0.0000000   0.0769231   0.1538462), wk =   0.0054620
        k(   10) = (   0.0000000   0.0769231   0.2307692), wk =   0.0054620
        k(   11) = (   0.0000000   0.0769231   0.3076923), wk =   0.0054620
        k(   12) = (   0.0000000   0.0769231   0.3846154), wk =   0.0054620
        k(   13) = (  -0.0000000   0.0769231   0.4615385), wk =   0.0054620
        k(   14) = (   0.0000000   0.0769231  -0.4615385), wk =   0.0054620
        k(   15) = (   0.0000000   0.0769231  -0.3846154), wk =   0.0054620
        k(   16) = (   0.0000000   0.0769231  -0.3076923), wk =   0.0054620
        k(   17) = (   0.0000000   0.0769231  -0.2307692), wk =   0.0054620
        k(   18) = (   0.0000000   0.0769231  -0.1538462), wk =   0.0054620
        k(   19) = (   0.0000000   0.0769231  -0.0769231), wk =   0.0027310
        k(   20) = (   0.0000000   0.1538462   0.1538462), wk =   0.0027310
        k(   21) = (   0.0000000   0.1538462   0.2307692), wk =   0.0054620
        k(   22) = (   0.0000000   0.1538462   0.3076923), wk =   0.0054620
        k(   23) = (   0.0000000   0.1538462   0.3846154), wk =   0.0054620
        k(   24) = (   0.0000000   0.1538462   0.4615385), wk =   0.0054620
        k(   25) = (   0.0000000   0.1538462  -0.4615385), wk =   0.0054620
        k(   26) = (   0.0000000   0.1538462  -0.3846154), wk =   0.0054620
        k(   27) = (   0.0000000   0.1538462  -0.3076923), wk =   0.0054620
        k(   28) = (   0.0000000   0.1538462  -0.2307692), wk =   0.0054620
        k(   29) = (   0.0000000   0.1538462  -0.1538462), wk =   0.0027310
        k(   30) = (  -0.0000000   0.2307692   0.2307692), wk =   0.0027310
        k(   31) = (   0.0000000   0.2307692   0.3076923), wk =   0.0054620
        k(   32) = (   0.0000000   0.2307692   0.3846154), wk =   0.0054620
        k(   33) = (  -0.0000000   0.2307692   0.4615385), wk =   0.0054620
        k(   34) = (   0.0000000   0.2307692  -0.4615385), wk =   0.0054620
        k(   35) = (   0.0000000   0.2307692  -0.3846154), wk =   0.0054620
        k(   36) = (   0.0000000   0.2307692  -0.3076923), wk =   0.0054620
        k(   37) = (   0.0000000   0.2307692  -0.2307692), wk =   0.0027310
        k(   38) = (   0.0000000   0.3076923   0.3076923), wk =   0.0027310
        k(   39) = (   0.0000000   0.3076923   0.3846154), wk =   0.0054620
        k(   40) = (   0.0000000   0.3076923   0.4615385), wk =   0.0054620
        k(   41) = (   0.0000000   0.3076923  -0.4615385), wk =   0.0054620
        k(   42) = (   0.0000000   0.3076923  -0.3846154), wk =   0.0054620
        k(   43) = (   0.0000000   0.3076923  -0.3076923), wk =   0.0027310
        k(   44) = (   0.0000000   0.3846154   0.3846154), wk =   0.0027310
        k(   45) = (   0.0000000   0.3846154   0.4615385), wk =   0.0054620
        k(   46) = (   0.0000000   0.3846154  -0.4615385), wk =   0.0054620
        k(   47) = (   0.0000000   0.3846154  -0.3846154), wk =   0.0027310
        k(   48) = (  -0.0000000   0.4615385   0.4615385), wk =   0.0027310
        k(   49) = (   0.0000000   0.4615385  -0.4615385), wk =   0.0027310
        k(   50) = (   0.0769231   0.0769231   0.0769231), wk =   0.0009103
        k(   51) = (   0.0769231   0.0769231   0.1538462), wk =   0.0027310
        k(   52) = (   0.0769231   0.0769231   0.2307692), wk =   0.0027310
        k(   53) = (   0.0769231   0.0769231   0.3076923), wk =   0.0027310
        k(   54) = (   0.0769231   0.0769231   0.3846154), wk =   0.0027310
        k(   55) = (   0.0769231   0.0769231   0.4615385), wk =   0.0027310
        k(   56) = (   0.0769231   0.0769231  -0.4615385), wk =   0.0027310
        k(   57) = (   0.0769231   0.0769231  -0.3846154), wk =   0.0027310
        k(   58) = (   0.0769231   0.0769231  -0.3076923), wk =   0.0027310
        k(   59) = (   0.0769231   0.0769231  -0.2307692), wk =   0.0027310
        k(   60) = (   0.0769231   0.0769231  -0.1538462), wk =   0.0027310
        k(   61) = (   0.0769231   0.0769231  -0.0769231), wk =   0.0027310
        k(   62) = (   0.0769231   0.1538462   0.1538462), wk =   0.0027310
        k(   63) = (   0.0769231   0.1538462   0.2307692), wk =   0.0054620
        k(   64) = (   0.0769231   0.1538462   0.3076923), wk =   0.0054620
        k(   65) = (   0.0769231   0.1538462   0.3846154), wk =   0.0054620
        k(   66) = (   0.0769231   0.1538462   0.4615385), wk =   0.0054620
        k(   67) = (   0.0769231   0.1538462  -0.4615385), wk =   0.0054620
        k(   68) = (   0.0769231   0.1538462  -0.3846154), wk =   0.0054620
        k(   69) = (   0.0769231   0.1538462  -0.3076923), wk =   0.0054620
        k(   70) = (   0.0769231   0.1538462  -0.2307692), wk =   0.0054620
        k(   71) = (   0.0769231   0.1538462  -0.1538462), wk =   0.0054620
        k(   72) = (   0.0769231   0.1538462  -0.0769231), wk =   0.0054620
        k(   73) = (   0.0769231   0.2307692   0.2307692), wk =   0.0027310
        k(   74) = (   0.0769231   0.2307692   0.3076923), wk =   0.0054620
        k(   75) = (   0.0769231   0.2307692   0.3846154), wk =   0.0054620
        k(   76) = (   0.0769231   0.2307692   0.4615385), wk =   0.0054620
        k(   77) = (   0.0769231   0.2307692  -0.4615385), wk =   0.0054620
        k(   78) = (   0.0769231   0.2307692  -0.3846154), wk =   0.0054620
        k(   79) = (   0.0769231   0.2307692  -0.3076923), wk =   0.0054620
        k(   80) = (   0.0769231   0.2307692  -0.2307692), wk =   0.0054620
        k(   81) = (   0.0769231   0.2307692  -0.1538462), wk =   0.0054620
        k(   82) = (   0.0769231   0.2307692  -0.0769231), wk =   0.0054620
        k(   83) = (   0.0769231   0.3076923   0.3076923), wk =   0.0027310
        k(   84) = (   0.0769231   0.3076923   0.3846154), wk =   0.0054620
        k(   85) = (   0.0769231   0.3076923   0.4615385), wk =   0.0054620
        k(   86) = (   0.0769231   0.3076923  -0.4615385), wk =   0.0054620
        k(   87) = (   0.0769231   0.3076923  -0.3846154), wk =   0.0054620
        k(   88) = (   0.0769231   0.3076923  -0.3076923), wk =   0.0054620
        k(   89) = (   0.0769231   0.3076923  -0.2307692), wk =   0.0054620
        k(   90) = (   0.0769231   0.3076923  -0.1538462), wk =   0.0054620
        k(   91) = (   0.0769231   0.3076923  -0.0769231), wk =   0.0054620
        k(   92) = (   0.0769231   0.3846154   0.3846154), wk =   0.0027310
        k(   93) = (   0.0769231   0.3846154   0.4615385), wk =   0.0054620
        k(   94) = (   0.0769231   0.3846154  -0.4615385), wk =   0.0054620
        k(   95) = (   0.0769231   0.3846154  -0.3846154), wk =   0.0054620
        k(   96) = (   0.0769231   0.3846154  -0.3076923), wk =   0.0054620
        k(   97) = (   0.0769231   0.3846154  -0.2307692), wk =   0.0054620
        k(   98) = (   0.0769231   0.3846154  -0.1538462), wk =   0.0054620
        k(   99) = (   0.0769231   0.3846154  -0.0769231), wk =   0.0054620
        k(  100) = (   0.0769231   0.4615385   0.4615385), wk =   0.0027310
        k(  101) = (   0.0769231   0.4615385  -0.4615385), wk =   0.0054620
        k(  102) = (   0.0769231   0.4615385  -0.3846154), wk =   0.0054620
        k(  103) = (   0.0769231   0.4615385  -0.3076923), wk =   0.0054620
        k(  104) = (   0.0769231   0.4615385  -0.2307692), wk =   0.0054620
        k(  105) = (   0.0769231   0.4615385  -0.1538462), wk =   0.0054620
        k(  106) = (   0.0769231   0.4615385  -0.0769231), wk =   0.0054620
        k(  107) = (   0.0769231  -0.4615385  -0.4615385), wk =   0.0027310
        k(  108) = (   0.0769231  -0.4615385  -0.3846154), wk =   0.0054620
        k(  109) = (   0.0769231  -0.4615385  -0.3076923), wk =   0.0054620
        k(  110) = (   0.0769231  -0.4615385  -0.2307692), wk =   0.0054620
        k(  111) = (   0.0769231  -0.4615385  -0.1538462), wk =   0.0054620
        k(  112) = (   0.0769231  -0.3846154  -0.3846154), wk =   0.0027310
        k(  113) = (   0.0769231  -0.3846154  -0.3076923), wk =   0.0054620
        k(  114) = (   0.0769231  -0.3846154  -0.2307692), wk =   0.0054620
        k(  115) = (   0.0769231  -0.3846154  -0.1538462), wk =   0.0054620
        k(  116) = (   0.0769231  -0.3076923  -0.3076923), wk =   0.0027310
        k(  117) = (   0.0769231  -0.3076923  -0.2307692), wk =   0.0054620
        k(  118) = (   0.0769231  -0.3076923  -0.1538462), wk =   0.0054620
        k(  119) = (   0.0769231  -0.2307692  -0.2307692), wk =   0.0027310
        k(  120) = (   0.0769231  -0.2307692  -0.1538462), wk =   0.0054620
        k(  121) = (   0.0769231  -0.1538462  -0.1538462), wk =   0.0027310
        k(  122) = (   0.1538462   0.1538462   0.1538462), wk =   0.0009103
        k(  123) = (   0.1538462   0.1538462   0.2307692), wk =   0.0027310
        k(  124) = (   0.1538462   0.1538462   0.3076923), wk =   0.0027310
        k(  125) = (   0.1538462   0.1538462   0.3846154), wk =   0.0027310
        k(  126) = (   0.1538462   0.1538462   0.4615385), wk =   0.0027310
        k(  127) = (   0.1538462   0.1538462  -0.4615385), wk =   0.0027310
        k(  128) = (   0.1538462   0.1538462  -0.3846154), wk =   0.0027310
        k(  129) = (   0.1538462   0.1538462  -0.3076923), wk =   0.0027310
        k(  130) = (   0.1538462   0.1538462  -0.2307692), wk =   0.0027310
        k(  131) = (   0.1538462   0.1538462  -0.1538462), wk =   0.0027310
        k(  132) = (   0.1538462   0.2307692   0.2307692), wk =   0.0027310
        k(  133) = (   0.1538462   0.2307692   0.3076923), wk =   0.0054620
        k(  134) = (   0.1538462   0.2307692   0.3846154), wk =   0.0054620
        k(  135) = (   0.1538462   0.2307692   0.4615385), wk =   0.0054620
        k(  136) = (   0.1538462   0.2307692  -0.4615385), wk =   0.0054620
        k(  137) = (   0.1538462   0.2307692  -0.3846154), wk =   0.0054620
        k(  138) = (   0.1538462   0.2307692  -0.3076923), wk =   0.0054620
        k(  139) = (   0.1538462   0.2307692  -0.2307692), wk =   0.0054620
        k(  140) = (   0.1538462   0.2307692  -0.1538462), wk =   0.0054620
        k(  141) = (   0.1538462   0.3076923   0.3076923), wk =   0.0027310
        k(  142) = (   0.1538462   0.3076923   0.3846154), wk =   0.0054620
        k(  143) = (   0.1538462   0.3076923   0.4615385), wk =   0.0054620
        k(  144) = (   0.1538462   0.3076923  -0.4615385), wk =   0.0054620
        k(  145) = (   0.1538462   0.3076923  -0.3846154), wk =   0.0054620
        k(  146) = (   0.1538462   0.3076923  -0.3076923), wk =   0.0054620
        k(  147) = (   0.1538462   0.3076923  -0.2307692), wk =   0.0054620
        k(  148) = (   0.1538462   0.3076923  -0.1538462), wk =   0.0054620
        k(  149) = (   0.1538462   0.3846154   0.3846154), wk =   0.0027310
        k(  150) = (   0.1538462   0.3846154   0.4615385), wk =   0.0054620
        k(  151) = (   0.1538462   0.3846154  -0.4615385), wk =   0.0054620
        k(  152) = (   0.1538462   0.3846154  -0.3846154), wk =   0.0054620
        k(  153) = (   0.1538462   0.3846154  -0.3076923), wk =   0.0054620
        k(  154) = (   0.1538462   0.3846154  -0.2307692), wk =   0.0054620
        k(  155) = (   0.1538462   0.3846154  -0.1538462), wk =   0.0054620
        k(  156) = (   0.1538462   0.4615385   0.4615385), wk =   0.0027310
        k(  157) = (   0.1538462   0.4615385  -0.4615385), wk =   0.0054620
        k(  158) = (   0.1538462   0.4615385  -0.3846154), wk =   0.0054620
        k(  159) = (   0.1538462   0.4615385  -0.3076923), wk =   0.0054620
        k(  160) = (   0.1538462   0.4615385  -0.2307692), wk =   0.0054620
        k(  161) = (   0.1538462   0.4615385  -0.1538462), wk =   0.0054620
        k(  162) = (   0.1538462  -0.4615385  -0.4615385), wk =   0.0027310
        k(  163) = (   0.1538462  -0.4615385  -0.3846154), wk =   0.0054620
        k(  164) = (   0.1538462  -0.4615385  -0.3076923), wk =   0.0054620
        k(  165) = (   0.1538462  -0.4615385  -0.2307692), wk =   0.0054620
        k(  166) = (   0.1538462  -0.3846154  -0.3846154), wk =   0.0027310
        k(  167) = (   0.1538462  -0.3846154  -0.3076923), wk =   0.0054620
        k(  168) = (   0.1538462  -0.3846154  -0.2307692), wk =   0.0054620
        k(  169) = (   0.1538462  -0.3076923  -0.3076923), wk =   0.0027310
        k(  170) = (   0.1538462  -0.3076923  -0.2307692), wk =   0.0054620
        k(  171) = (   0.1538462  -0.2307692  -0.2307692), wk =   0.0027310
        k(  172) = (   0.2307692   0.2307692   0.2307692), wk =   0.0009103
        k(  173) = (   0.2307692   0.2307692   0.3076923), wk =   0.0027310
        k(  174) = (   0.2307692   0.2307692   0.3846154), wk =   0.0027310
        k(  175) = (   0.2307692   0.2307692   0.4615385), wk =   0.0027310
        k(  176) = (   0.2307692   0.2307692  -0.4615385), wk =   0.0027310
        k(  177) = (   0.2307692   0.2307692  -0.3846154), wk =   0.0027310
        k(  178) = (   0.2307692   0.2307692  -0.3076923), wk =   0.0027310
        k(  179) = (   0.2307692   0.2307692  -0.2307692), wk =   0.0027310
        k(  180) = (   0.2307692   0.3076923   0.3076923), wk =   0.0027310
        k(  181) = (   0.2307692   0.3076923   0.3846154), wk =   0.0054620
        k(  182) = (   0.2307692   0.3076923   0.4615385), wk =   0.0054620
        k(  183) = (   0.2307692   0.3076923  -0.4615385), wk =   0.0054620
        k(  184) = (   0.2307692   0.3076923  -0.3846154), wk =   0.0054620
        k(  185) = (   0.2307692   0.3076923  -0.3076923), wk =   0.0054620
        k(  186) = (   0.2307692   0.3076923  -0.2307692), wk =   0.0054620
        k(  187) = (   0.2307692   0.3846154   0.3846154), wk =   0.0027310
        k(  188) = (   0.2307692   0.3846154   0.4615385), wk =   0.0054620
        k(  189) = (   0.2307692   0.3846154  -0.4615385), wk =   0.0054620
        k(  190) = (   0.2307692   0.3846154  -0.3846154), wk =   0.0054620
        k(  191) = (   0.2307692   0.3846154  -0.3076923), wk =   0.0054620
        k(  192) = (   0.2307692   0.3846154  -0.2307692), wk =   0.0054620
        k(  193) = (   0.2307692   0.4615385   0.4615385), wk =   0.0027310
        k(  194) = (   0.2307692   0.4615385  -0.4615385), wk =   0.0054620
        k(  195) = (   0.2307692   0.4615385  -0.3846154), wk =   0.0054620
        k(  196) = (   0.2307692   0.4615385  -0.3076923), wk =   0.0054620
        k(  197) = (   0.2307692   0.4615385  -0.2307692), wk =   0.0054620
        k(  198) = (   0.2307692  -0.4615385  -0.4615385), wk =   0.0027310
        k(  199) = (   0.2307692  -0.4615385  -0.3846154), wk =   0.0054620
        k(  200) = (   0.2307692  -0.4615385  -0.3076923), wk =   0.0054620
        k(  201) = (   0.2307692  -0.3846154  -0.3846154), wk =   0.0027310
        k(  202) = (   0.2307692  -0.3846154  -0.3076923), wk =   0.0054620
        k(  203) = (   0.2307692  -0.3076923  -0.3076923), wk =   0.0027310
        k(  204) = (   0.3076923   0.3076923   0.3076923), wk =   0.0009103
        k(  205) = (   0.3076923   0.3076923   0.3846154), wk =   0.0027310
        k(  206) = (   0.3076923   0.3076923   0.4615385), wk =   0.0027310
        k(  207) = (   0.3076923   0.3076923  -0.4615385), wk =   0.0027310
        k(  208) = (   0.3076923   0.3076923  -0.3846154), wk =   0.0027310
        k(  209) = (   0.3076923   0.3076923  -0.3076923), wk =   0.0027310
        k(  210) = (   0.3076923   0.3846154   0.3846154), wk =   0.0027310
        k(  211) = (   0.3076923   0.3846154   0.4615385), wk =   0.0054620
        k(  212) = (   0.3076923   0.3846154  -0.4615385), wk =   0.0054620
        k(  213) = (   0.3076923   0.3846154  -0.3846154), wk =   0.0054620
        k(  214) = (   0.3076923   0.3846154  -0.3076923), wk =   0.0054620
        k(  215) = (   0.3076923   0.4615385   0.4615385), wk =   0.0027310
        k(  216) = (   0.3076923   0.4615385  -0.4615385), wk =   0.0054620
        k(  217) = (   0.3076923   0.4615385  -0.3846154), wk =   0.0054620
        k(  218) = (   0.3076923   0.4615385  -0.3076923), wk =   0.0054620
        k(  219) = (   0.3076923  -0.4615385  -0.4615385), wk =   0.0027310
        k(  220) = (   0.3076923  -0.4615385  -0.3846154), wk =   0.0054620
        k(  221) = (   0.3076923  -0.3846154  -0.3846154), wk =   0.0027310
        k(  222) = (   0.3846154   0.3846154   0.3846154), wk =   0.0009103
        k(  223) = (   0.3846154   0.3846154   0.4615385), wk =   0.0027310
        k(  224) = (   0.3846154   0.3846154  -0.4615385), wk =   0.0027310
        k(  225) = (   0.3846154   0.3846154  -0.3846154), wk =   0.0027310
        k(  226) = (   0.3846154   0.4615385   0.4615385), wk =   0.0027310
        k(  227) = (   0.3846154   0.4615385  -0.4615385), wk =   0.0054620
        k(  228) = (   0.3846154   0.4615385  -0.3846154), wk =   0.0054620
        k(  229) = (   0.3846154  -0.4615385  -0.4615385), wk =   0.0027310
        k(  230) = (   0.4615385   0.4615385   0.4615385), wk =   0.0009103
        k(  231) = (   0.4615385   0.4615385  -0.4615385), wk =   0.0027310

     Dense  grid:   120147 G-vectors     FFT dimensions: (  81,  81,  81)

     Smooth grid:    42513 G-vectors     FFT dimensions: (  60,  60,  60)

     Dynamical RAM for                 wfc:       0.57 MB

     Dynamical RAM for     wfc (w. buffer):      38.01 MB

     Dynamical RAM for           str. fact:       0.69 MB

     Dynamical RAM for           local pot:       0.00 MB

     Dynamical RAM for          nlocal pot:       1.23 MB

     Dynamical RAM for                qrad:       6.42 MB

     Dynamical RAM for          rho,v,vnew:       4.68 MB

     Dynamical RAM for               rhoin:       1.56 MB

     Dynamical RAM for            rho*nmix:       7.33 MB

     Dynamical RAM for           G-vectors:       0.90 MB

     Dynamical RAM for          h,s,v(r/c):       0.14 MB

     Dynamical RAM for          <psi|beta>:       0.10 MB

     Dynamical RAM for      wfcinit/wfcrot:       1.28 MB

     Dynamical RAM for           addusdens:       7.33 MB

     Dynamical RAM for          addusforce:       7.51 MB

     Dynamical RAM for         addusstress:       7.45 MB

     Estimated static dynamical RAM per process >      57.71 MB

     Estimated max dynamical RAM per process >      72.56 MB

     Estimated total dynamical RAM >       3.62 GB

     Check: negative core charge=   -0.000004
     Generating pointlists ...
     new r_m :   0.1708 (alat units)  2.1631 (a.u.) for type    1
     new r_m :   0.1184 (alat units)  1.4999 (a.u.) for type    2
     new r_m :   0.1184 (alat units)  1.4999 (a.u.) for type    3

     The initial density is read from file :
     ./out/aiida.save/charge-density


     negative rho (up, down):  4.580E-01 6.179E-02
     Starting wfcs are   59 randomized atomic wfcs
     Checking if some PAW data can be deallocated... 
       PAW data deallocated on   50 nodes for type:  1
       PAW data deallocated on   38 nodes for type:  2
       PAW data deallocated on   24 nodes for type:  3

     total cpu time spent up to now is        5.2 secs

     per-process dynamical memory:    75.6 Mb

     Self-consistent Calculation

     iteration #  1     ecut=    50.00 Ry     beta= 0.40
     PPCG style diagonalization

---- Real-time Memory Report at c_bands before calling an iterative solver
           110 MiB given to the printing process from OS
            73 MiB allocation reported by mallinfo(arena+hblkhd)
        487490 MiB available memory on the node where the printing process lives
------------------
     ethr =  1.00E-05,  avg # of iterations = 12.8

     negative rho (up, down):  5.067E-01 6.286E-02

     total cpu time spent up to now is       55.9 secs

     total energy              =   -1667.01385879 Ry
     estimated scf accuracy    <       0.03316803 Ry

     total magnetization       =     0.00 Bohr mag/cell
     absolute magnetization    =     1.19 Bohr mag/cell

     iteration #  2     ecut=    50.00 Ry     beta= 0.40
     PPCG style diagonalization

---- Real-time Memory Report at c_bands before calling an iterative solver
           133 MiB given to the printing process from OS
            83 MiB allocation reported by mallinfo(arena+hblkhd)
        486520 MiB available memory on the node where the printing process lives
------------------
