
     Program PWSCF v.7.2 starts on 22Oct2023 at 17:27:43 

     This program is part of the open-source Quantum ESPRESSO suite
     for quantum simulation of materials; please cite
         "P. Giannozzi et al., J. Phys.:Condens. Matter 21 395502 (2009);
         "P. Giannozzi et al., J. Phys.:Condens. Matter 29 465901 (2017);
         "P. Giannozzi et al., J. Chem. Phys. 152 154105 (2020);
          URL http://www.quantum-espresso.org", 
     in publications or presentations arising from this work. More details at
     http://www.quantum-espresso.org/quote

     Parallel version (MPI & OpenMP), running on      12 processor cores
     Number of MPI processes:                 1
     Threads/MPI process:                    12

     MPI processes distributed on     1 nodes
     60355 MiB available memory on the printing compute node when the environment starts
 
     Reading input from aiida.in

     Current dimensions of program PWSCF are:
     Max number of different atomic species (ntypx) = 10
     Max number of k-points (npk) =  40000
     Max angular momentum in pseudopotentials (lmaxx) =  4
     Message from routine setup:
     using ibrav=0 with symmetry is DISCOURAGED, use correct ibrav instead
 
     Subspace diagonalization in iterative solution of the eigenvalue problem:
     a serial algorithm will be used

 
     G-vector sticks info
     --------------------
     sticks:   dense  smooth     PW     G-vecs:    dense   smooth      PW
     Sum        3949    1969    559               166539    58737    8885
 
     Using Slab Decomposition
 


     bravais-lattice index     =            0
     lattice parameter (alat)  =      10.9302  a.u.
     unit-cell volume          =     937.6980 (a.u.)^3
     number of atoms/cell      =            9
     number of atomic types    =            3
     number of electrons       =        56.00
     number of Kohn-Sham states=           34
     kinetic-energy cutoff     =      60.0000  Ry
     charge density cutoff     =     480.0000  Ry
     scf convergence threshold =      1.8E-09
     mixing beta               =       0.4000
     number of iterations used =            8  plain     mixing
     Exchange-correlation= PBESOL
                           (   1   4  10   8   0   0   0)

     GPU acceleration is ACTIVE.


     GPU used by master process:

        Device Number: 0
        Device name: Tesla P100-PCIE-16GB
        Compute capability : 60
        Ratio of single to double precision performance  : 2
        Memory Clock Rate (KHz): 715000
        Memory Bus Width (bits): 4096
        Peak Memory Bandwidth (GB/s): 732.16

     celldm(1)=  10.930176  celldm(2)=   0.000000  celldm(3)=   0.000000
     celldm(4)=   0.000000  celldm(5)=   0.000000  celldm(6)=   0.000000

     crystal axes: (cart. coord. in units of alat)
               a(1) = (   1.000000   0.000000   0.000000 )  
               a(2) = (  -0.500000   0.866025   0.000000 )  
               a(3) = (   0.000000   0.000000   0.829184 )  

     reciprocal axes: (cart. coord. in units 2 pi/alat)
               b(1) = (  1.000000  0.577350 -0.000000 )  
               b(2) = (  0.000000  1.154701  0.000000 )  
               b(3) = (  0.000000 -0.000000  1.206005 )  


     PseudoPot. # 1 for F  read from file:
     ./pseudo/f_pbesol_v1.4.uspp.F.UPF
     MD5 check sum: d2815ecb49b17b99c5724ffd2f9bbd8d
     Pseudo is Ultrasoft, Zval =  7.0
     Generated by new atomic code, or converted to UPF format
     Using radial grid of  799 points,  4 beta functions with: 
                l(1) =   0
                l(2) =   0
                l(3) =   1
                l(4) =   1
     Q(r) pseudized with  8 coefficients,  rinner =    0.950   0.950   0.950


     PseudoPot. # 2 for N  read from file:
     ./pseudo/N.pbesol-theos.UPF
     MD5 check sum: 1b64827339d390a5a22afef3ff345c9d
     Pseudo is Ultrasoft + core correction, Zval =  5.0
     Generated using "atomic" code by A. Dal Corso  v.5.1
     Using radial grid of 1085 points,  4 beta functions with: 
                l(1) =   0
                l(2) =   0
                l(3) =   1
                l(4) =   1
     Q(r) pseudized with 0 coefficients 


     PseudoPot. # 3 for Si read from file:
     ./pseudo/Si.pbesol-n-rrkjus_psl.1.0.0.UPF
     MD5 check sum: c4212819de858c94c3a1644338846ac9
     Pseudo is Ultrasoft + core correction, Zval =  4.0
     Generated using "atomic" code by A. Dal Corso  v.6.0 svn rev. 13079
     Using radial grid of 1141 points,  6 beta functions with: 
                l(1) =   0
                l(2) =   0
                l(3) =   1
                l(4) =   1
                l(5) =   2
                l(6) =   2
     Q(r) pseudized with 0 coefficients 


     atomic species   valence    mass     pseudopotential
        F              7.00    18.99840     F ( 1.00)
        N              5.00    14.00670     N ( 1.00)
        Si             4.00    28.08550     Si( 1.00)

     Starting magnetic structure 
     atomic species   magnetization
        F            0.100
        N            0.100
        Si           0.100

     12 Sym. Ops., with inversion, found


                                    s                        frac. trans.

      isym =  1     identity                                     

 cryst.   s( 1) = (     1          0          0      )
                  (     0          1          0      )
                  (     0          0          1      )

 cart.    s( 1) = (  1.0000000  0.0000000  0.0000000 )
                  (  0.0000000  1.0000000  0.0000000 )
                  (  0.0000000  0.0000000  1.0000000 )


      isym =  2     180 deg rotation - cart. axis [1,0,0]        

 cryst.   s( 2) = (     1          0          0      )
                  (    -1         -1          0      )
                  (     0          0         -1      )

 cart.    s( 2) = (  1.0000000  0.0000000  0.0000000 )
                  (  0.0000000 -1.0000000  0.0000000 )
                  (  0.0000000  0.0000000 -1.0000000 )


      isym =  3     120 deg rotation - cryst. axis [0,0,1]       

 cryst.   s( 3) = (     0          1          0      )
                  (    -1         -1          0      )
                  (     0          0          1      )

 cart.    s( 3) = ( -0.5000000 -0.8660254  0.0000000 )
                  (  0.8660254 -0.5000000  0.0000000 )
                  (  0.0000000  0.0000000  1.0000000 )


      isym =  4     120 deg rotation - cryst. axis [0,0,-1]      

 cryst.   s( 4) = (    -1         -1          0      )
                  (     1          0          0      )
                  (     0          0          1      )

 cart.    s( 4) = ( -0.5000000  0.8660254  0.0000000 )
                  ( -0.8660254 -0.5000000  0.0000000 )
                  (  0.0000000  0.0000000  1.0000000 )


      isym =  5     180 deg rotation - cryst. axis [0,1,0]       

 cryst.   s( 5) = (    -1         -1          0      )
                  (     0          1          0      )
                  (     0          0         -1      )

 cart.    s( 5) = ( -0.5000000 -0.8660254  0.0000000 )
                  ( -0.8660254  0.5000000  0.0000000 )
                  (  0.0000000  0.0000000 -1.0000000 )


      isym =  6     180 deg rotation - cryst. axis [1,1,0]       

 cryst.   s( 6) = (     0          1          0      )
                  (     1          0          0      )
                  (     0          0         -1      )

 cart.    s( 6) = ( -0.5000000  0.8660254  0.0000000 )
                  (  0.8660254  0.5000000  0.0000000 )
                  (  0.0000000  0.0000000 -1.0000000 )


      isym =  7     inversion                                    

 cryst.   s( 7) = (    -1          0          0      )
                  (     0         -1          0      )
                  (     0          0         -1      )

 cart.    s( 7) = ( -1.0000000  0.0000000  0.0000000 )
                  (  0.0000000 -1.0000000  0.0000000 )
                  (  0.0000000  0.0000000 -1.0000000 )


      isym =  8     inv. 180 deg rotation - cart. axis [1,0,0]   

 cryst.   s( 8) = (    -1          0          0      )
                  (     1          1          0      )
                  (     0          0          1      )

 cart.    s( 8) = ( -1.0000000  0.0000000  0.0000000 )
                  (  0.0000000  1.0000000  0.0000000 )
                  (  0.0000000  0.0000000  1.0000000 )


      isym =  9     inv. 120 deg rotation - cryst. axis [0,0,1]  

 cryst.   s( 9) = (     0         -1          0      )
                  (     1          1          0      )
                  (     0          0         -1      )

 cart.    s( 9) = (  0.5000000  0.8660254  0.0000000 )
                  ( -0.8660254  0.5000000  0.0000000 )
                  (  0.0000000  0.0000000 -1.0000000 )


      isym = 10     inv. 120 deg rotation - cryst. axis [0,0,-1] 

 cryst.   s(10) = (     1          1          0      )
                  (    -1          0          0      )
                  (     0          0         -1      )

 cart.    s(10) = (  0.5000000 -0.8660254  0.0000000 )
                  (  0.8660254  0.5000000  0.0000000 )
                  (  0.0000000  0.0000000 -1.0000000 )


      isym = 11     inv. 180 deg rotation - cryst. axis [0,1,0]  

 cryst.   s(11) = (     1          1          0      )
                  (     0         -1          0      )
                  (     0          0          1      )

 cart.    s(11) = (  0.5000000  0.8660254  0.0000000 )
                  (  0.8660254 -0.5000000  0.0000000 )
                  (  0.0000000  0.0000000  1.0000000 )


      isym = 12     inv. 180 deg rotation - cryst. axis [1,1,0]  

 cryst.   s(12) = (     0         -1          0      )
                  (    -1          0          0      )
                  (     0          0          1      )

 cart.    s(12) = (  0.5000000 -0.8660254  0.0000000 )
                  ( -0.8660254 -0.5000000  0.0000000 )
                  (  0.0000000  0.0000000  1.0000000 )


   Cartesian axes

     site n.     atom                  positions (alat units)
         1           Si  tau(   1) = (   0.0000000   0.0000000   0.0000000  )
         2           N   tau(   2) = (   0.0000000   0.5773503   0.2736307  )
         3           N   tau(   3) = (   0.5000000   0.2886751   0.5555533  )
         4           F   tau(   4) = (   0.2085000   0.1203775   0.1666660  )
         5           F   tau(   5) = (  -0.0000000   0.2407551   0.6625180  )
         6           F   tau(   6) = (  -0.2915000   0.7456479   0.6625180  )
         7           F   tau(   7) = (   0.7915000   0.1203775   0.1666660  )
         8           F   tau(   8) = (   0.5000000   0.6252703   0.1666660  )
         9           F   tau(   9) = (   0.2915000   0.7456479   0.6625180  )

   Crystallographic axes

     site n.     atom                  positions (cryst. coord.)
         1           Si  tau(   1) = (  0.0000000  0.0000000  0.0000000  )
         2           N   tau(   2) = (  0.3333333  0.6666667  0.3300000  )
         3           N   tau(   3) = (  0.6666667  0.3333333  0.6700000  )
         4           F   tau(   4) = (  0.2780000  0.1390000  0.2010000  )
         5           F   tau(   5) = (  0.1390000  0.2780000  0.7990000  )
         6           F   tau(   6) = (  0.1390000  0.8610000  0.7990000  )
         7           F   tau(   7) = (  0.8610000  0.1390000  0.2010000  )
         8           F   tau(   8) = (  0.8610000  0.7220000  0.2010000  )
         9           F   tau(   9) = (  0.7220000  0.8610000  0.7990000  )

     number of k points=    88  Marzari-Vanderbilt smearing, width (Ry)=  0.0100
                       cart. coord. in units 2pi/alat
        k(    1) = (   0.0000000   0.0000000   0.0000000), wk =   0.0013717
        k(    2) = (   0.0000000   0.0000000   0.1340006), wk =   0.0027435
        k(    3) = (   0.0000000   0.0000000   0.2680011), wk =   0.0027435
        k(    4) = (   0.0000000   0.0000000   0.4020017), wk =   0.0027435
        k(    5) = (   0.0000000   0.0000000   0.5360022), wk =   0.0027435
        k(    6) = (   0.0000000   0.1283001   0.0000000), wk =   0.0082305
        k(    7) = (   0.0000000   0.1283001   0.1340006), wk =   0.0082305
        k(    8) = (   0.0000000   0.1283001   0.2680011), wk =   0.0082305
        k(    9) = (   0.0000000   0.1283001   0.4020017), wk =   0.0082305
        k(   10) = (   0.0000000   0.1283001   0.5360022), wk =   0.0082305
        k(   11) = (   0.0000000   0.2566001   0.0000000), wk =   0.0082305
        k(   12) = (   0.0000000   0.2566001   0.1340006), wk =   0.0082305
        k(   13) = (   0.0000000   0.2566001   0.2680011), wk =   0.0082305
        k(   14) = (   0.0000000   0.2566001   0.4020017), wk =   0.0082305
        k(   15) = (   0.0000000   0.2566001   0.5360022), wk =   0.0082305
        k(   16) = (   0.0000000   0.3849002   0.0000000), wk =   0.0082305
        k(   17) = (   0.0000000   0.3849002   0.1340006), wk =   0.0082305
        k(   18) = (   0.0000000   0.3849002   0.2680011), wk =   0.0082305
        k(   19) = (   0.0000000   0.3849002   0.4020017), wk =   0.0082305
        k(   20) = (   0.0000000   0.3849002   0.5360022), wk =   0.0082305
        k(   21) = (   0.0000000   0.5132002   0.0000000), wk =   0.0082305
        k(   22) = (   0.0000000   0.5132002   0.1340006), wk =   0.0082305
        k(   23) = (   0.0000000   0.5132002   0.2680011), wk =   0.0082305
        k(   24) = (   0.0000000   0.5132002   0.4020017), wk =   0.0082305
        k(   25) = (   0.0000000   0.5132002   0.5360022), wk =   0.0082305
        k(   26) = (   0.1111111   0.1924501   0.0000000), wk =   0.0082305
        k(   27) = (   0.1111111   0.1924501   0.1340006), wk =   0.0164609
        k(   28) = (   0.1111111   0.1924501   0.2680011), wk =   0.0164609
        k(   29) = (   0.1111111   0.1924501   0.4020017), wk =   0.0164609
        k(   30) = (   0.1111111   0.1924501   0.5360022), wk =   0.0164609
        k(   31) = (   0.1111111   0.3207501   0.0000000), wk =   0.0164609
        k(   32) = (   0.1111111   0.3207501   0.1340006), wk =   0.0164609
        k(   33) = (   0.1111111   0.3207501   0.2680011), wk =   0.0164609
        k(   34) = (   0.1111111   0.3207501   0.4020017), wk =   0.0164609
        k(   35) = (   0.1111111   0.3207501   0.5360022), wk =   0.0164609
        k(   36) = (   0.1111111   0.4490502   0.0000000), wk =   0.0164609
        k(   37) = (   0.1111111   0.4490502   0.1340006), wk =   0.0164609
        k(   38) = (   0.1111111   0.4490502   0.2680011), wk =   0.0164609
        k(   39) = (   0.1111111   0.4490502   0.4020017), wk =   0.0164609
        k(   40) = (   0.1111111   0.4490502   0.5360022), wk =   0.0164609
        k(   41) = (   0.1111111   0.5773503   0.0000000), wk =   0.0082305
        k(   42) = (   0.1111111   0.5773503   0.1340006), wk =   0.0164609
        k(   43) = (   0.1111111   0.5773503   0.2680011), wk =   0.0164609
        k(   44) = (   0.1111111   0.5773503   0.4020017), wk =   0.0164609
        k(   45) = (   0.1111111   0.5773503   0.5360022), wk =   0.0164609
        k(   46) = (   0.2222222   0.3849002   0.0000000), wk =   0.0082305
        k(   47) = (   0.2222222   0.3849002   0.1340006), wk =   0.0164609
        k(   48) = (   0.2222222   0.3849002   0.2680011), wk =   0.0164609
        k(   49) = (   0.2222222   0.3849002   0.4020017), wk =   0.0164609
        k(   50) = (   0.2222222   0.3849002   0.5360022), wk =   0.0164609
        k(   51) = (   0.2222222   0.5132002   0.0000000), wk =   0.0164609
        k(   52) = (   0.2222222   0.5132002   0.1340006), wk =   0.0164609
        k(   53) = (   0.2222222   0.5132002   0.2680011), wk =   0.0164609
        k(   54) = (   0.2222222   0.5132002   0.4020017), wk =   0.0164609
        k(   55) = (   0.2222222   0.5132002   0.5360022), wk =   0.0164609
        k(   56) = (   0.3333333   0.5773503   0.0000000), wk =   0.0027435
        k(   57) = (   0.3333333   0.5773503   0.1340006), wk =   0.0054870
        k(   58) = (   0.3333333   0.5773503   0.2680011), wk =   0.0054870
        k(   59) = (   0.3333333   0.5773503   0.4020017), wk =   0.0054870
        k(   60) = (   0.3333333   0.5773503   0.5360022), wk =   0.0054870
        k(   61) = (   0.0000000   0.1283001  -0.1340006), wk =   0.0082305
        k(   62) = (   0.0000000   0.1283001  -0.2680011), wk =   0.0082305
        k(   63) = (   0.0000000   0.1283001  -0.4020017), wk =   0.0082305
        k(   64) = (   0.0000000   0.1283001  -0.5360022), wk =   0.0082305
        k(   65) = (   0.0000000   0.2566001  -0.1340006), wk =   0.0082305
        k(   66) = (   0.0000000   0.2566001  -0.2680011), wk =   0.0082305
        k(   67) = (   0.0000000   0.2566001  -0.4020017), wk =   0.0082305
        k(   68) = (   0.0000000   0.2566001  -0.5360022), wk =   0.0082305
        k(   69) = (   0.0000000   0.3849002  -0.1340006), wk =   0.0082305
        k(   70) = (   0.0000000   0.3849002  -0.2680011), wk =   0.0082305
        k(   71) = (   0.0000000   0.3849002  -0.4020017), wk =   0.0082305
        k(   72) = (   0.0000000   0.3849002  -0.5360022), wk =   0.0082305
        k(   73) = (   0.0000000   0.5132002  -0.1340006), wk =   0.0082305
        k(   74) = (   0.0000000   0.5132002  -0.2680011), wk =   0.0082305
        k(   75) = (   0.0000000   0.5132002  -0.4020017), wk =   0.0082305
        k(   76) = (   0.0000000   0.5132002  -0.5360022), wk =   0.0082305
        k(   77) = (  -0.1111111   0.3207501  -0.1340006), wk =   0.0164609
        k(   78) = (  -0.1111111   0.3207501  -0.2680011), wk =   0.0164609
        k(   79) = (  -0.1111111   0.3207501  -0.4020017), wk =   0.0164609
        k(   80) = (  -0.1111111   0.3207501  -0.5360022), wk =   0.0164609
        k(   81) = (  -0.1111111   0.4490502  -0.1340006), wk =   0.0164609
        k(   82) = (  -0.1111111   0.4490502  -0.2680011), wk =   0.0164609
        k(   83) = (  -0.1111111   0.4490502  -0.4020017), wk =   0.0164609
        k(   84) = (  -0.1111111   0.4490502  -0.5360022), wk =   0.0164609
        k(   85) = (  -0.2222222   0.5132002  -0.1340006), wk =   0.0164609
        k(   86) = (  -0.2222222   0.5132002  -0.2680011), wk =   0.0164609
        k(   87) = (  -0.2222222   0.5132002  -0.4020017), wk =   0.0164609
        k(   88) = (  -0.2222222   0.5132002  -0.5360022), wk =   0.0164609

                       cryst. coord.
        k(    1) = (   0.0000000   0.0000000   0.0000000), wk =   0.0013717
        k(    2) = (   0.0000000   0.0000000   0.1111111), wk =   0.0027435
        k(    3) = (   0.0000000   0.0000000   0.2222222), wk =   0.0027435
        k(    4) = (   0.0000000   0.0000000   0.3333333), wk =   0.0027435
        k(    5) = (   0.0000000   0.0000000   0.4444444), wk =   0.0027435
        k(    6) = (   0.0000000   0.1111111   0.0000000), wk =   0.0082305
        k(    7) = (   0.0000000   0.1111111   0.1111111), wk =   0.0082305
        k(    8) = (   0.0000000   0.1111111   0.2222222), wk =   0.0082305
        k(    9) = (   0.0000000   0.1111111   0.3333333), wk =   0.0082305
        k(   10) = (   0.0000000   0.1111111   0.4444444), wk =   0.0082305
        k(   11) = (   0.0000000   0.2222222   0.0000000), wk =   0.0082305
        k(   12) = (   0.0000000   0.2222222   0.1111111), wk =   0.0082305
        k(   13) = (   0.0000000   0.2222222   0.2222222), wk =   0.0082305
        k(   14) = (   0.0000000   0.2222222   0.3333333), wk =   0.0082305
        k(   15) = (   0.0000000   0.2222222   0.4444444), wk =   0.0082305
        k(   16) = (   0.0000000   0.3333333   0.0000000), wk =   0.0082305
        k(   17) = (   0.0000000   0.3333333   0.1111111), wk =   0.0082305
        k(   18) = (   0.0000000   0.3333333   0.2222222), wk =   0.0082305
        k(   19) = (   0.0000000   0.3333333   0.3333333), wk =   0.0082305
        k(   20) = (   0.0000000   0.3333333   0.4444444), wk =   0.0082305
        k(   21) = (   0.0000000   0.4444444   0.0000000), wk =   0.0082305
        k(   22) = (   0.0000000   0.4444444   0.1111111), wk =   0.0082305
        k(   23) = (   0.0000000   0.4444444   0.2222222), wk =   0.0082305
        k(   24) = (   0.0000000   0.4444444   0.3333333), wk =   0.0082305
        k(   25) = (   0.0000000   0.4444444   0.4444444), wk =   0.0082305
        k(   26) = (   0.1111111   0.1111111   0.0000000), wk =   0.0082305
        k(   27) = (   0.1111111   0.1111111   0.1111111), wk =   0.0164609
        k(   28) = (   0.1111111   0.1111111   0.2222222), wk =   0.0164609
        k(   29) = (   0.1111111   0.1111111   0.3333333), wk =   0.0164609
        k(   30) = (   0.1111111   0.1111111   0.4444444), wk =   0.0164609
        k(   31) = (   0.1111111   0.2222222   0.0000000), wk =   0.0164609
        k(   32) = (   0.1111111   0.2222222   0.1111111), wk =   0.0164609
        k(   33) = (   0.1111111   0.2222222   0.2222222), wk =   0.0164609
        k(   34) = (   0.1111111   0.2222222   0.3333333), wk =   0.0164609
        k(   35) = (   0.1111111   0.2222222   0.4444444), wk =   0.0164609
        k(   36) = (   0.1111111   0.3333333   0.0000000), wk =   0.0164609
        k(   37) = (   0.1111111   0.3333333   0.1111111), wk =   0.0164609
        k(   38) = (   0.1111111   0.3333333   0.2222222), wk =   0.0164609
        k(   39) = (   0.1111111   0.3333333   0.3333333), wk =   0.0164609
        k(   40) = (   0.1111111   0.3333333   0.4444444), wk =   0.0164609
        k(   41) = (   0.1111111   0.4444444   0.0000000), wk =   0.0082305
        k(   42) = (   0.1111111   0.4444444   0.1111111), wk =   0.0164609
        k(   43) = (   0.1111111   0.4444444   0.2222222), wk =   0.0164609
        k(   44) = (   0.1111111   0.4444444   0.3333333), wk =   0.0164609
        k(   45) = (   0.1111111   0.4444444   0.4444444), wk =   0.0164609
        k(   46) = (   0.2222222   0.2222222   0.0000000), wk =   0.0082305
        k(   47) = (   0.2222222   0.2222222   0.1111111), wk =   0.0164609
        k(   48) = (   0.2222222   0.2222222   0.2222222), wk =   0.0164609
        k(   49) = (   0.2222222   0.2222222   0.3333333), wk =   0.0164609
        k(   50) = (   0.2222222   0.2222222   0.4444444), wk =   0.0164609
        k(   51) = (   0.2222222   0.3333333   0.0000000), wk =   0.0164609
        k(   52) = (   0.2222222   0.3333333   0.1111111), wk =   0.0164609
        k(   53) = (   0.2222222   0.3333333   0.2222222), wk =   0.0164609
        k(   54) = (   0.2222222   0.3333333   0.3333333), wk =   0.0164609
        k(   55) = (   0.2222222   0.3333333   0.4444444), wk =   0.0164609
        k(   56) = (   0.3333333   0.3333333   0.0000000), wk =   0.0027435
        k(   57) = (   0.3333333   0.3333333   0.1111111), wk =   0.0054870
        k(   58) = (   0.3333333   0.3333333   0.2222222), wk =   0.0054870
        k(   59) = (   0.3333333   0.3333333   0.3333333), wk =   0.0054870
        k(   60) = (   0.3333333   0.3333333   0.4444444), wk =   0.0054870
        k(   61) = (   0.0000000   0.1111111  -0.1111111), wk =   0.0082305
        k(   62) = (   0.0000000   0.1111111  -0.2222222), wk =   0.0082305
        k(   63) = (   0.0000000   0.1111111  -0.3333333), wk =   0.0082305
        k(   64) = (   0.0000000   0.1111111  -0.4444444), wk =   0.0082305
        k(   65) = (   0.0000000   0.2222222  -0.1111111), wk =   0.0082305
        k(   66) = (   0.0000000   0.2222222  -0.2222222), wk =   0.0082305
        k(   67) = (   0.0000000   0.2222222  -0.3333333), wk =   0.0082305
        k(   68) = (   0.0000000   0.2222222  -0.4444444), wk =   0.0082305
        k(   69) = (   0.0000000   0.3333333  -0.1111111), wk =   0.0082305
        k(   70) = (   0.0000000   0.3333333  -0.2222222), wk =   0.0082305
        k(   71) = (   0.0000000   0.3333333  -0.3333333), wk =   0.0082305
        k(   72) = (   0.0000000   0.3333333  -0.4444444), wk =   0.0082305
        k(   73) = (   0.0000000   0.4444444  -0.1111111), wk =   0.0082305
        k(   74) = (   0.0000000   0.4444444  -0.2222222), wk =   0.0082305
        k(   75) = (   0.0000000   0.4444444  -0.3333333), wk =   0.0082305
        k(   76) = (   0.0000000   0.4444444  -0.4444444), wk =   0.0082305
        k(   77) = (  -0.1111111   0.3333333  -0.1111111), wk =   0.0164609
        k(   78) = (  -0.1111111   0.3333333  -0.2222222), wk =   0.0164609
        k(   79) = (  -0.1111111   0.3333333  -0.3333333), wk =   0.0164609
        k(   80) = (  -0.1111111   0.3333333  -0.4444444), wk =   0.0164609
        k(   81) = (  -0.1111111   0.4444444  -0.1111111), wk =   0.0164609
        k(   82) = (  -0.1111111   0.4444444  -0.2222222), wk =   0.0164609
        k(   83) = (  -0.1111111   0.4444444  -0.3333333), wk =   0.0164609
        k(   84) = (  -0.1111111   0.4444444  -0.4444444), wk =   0.0164609
        k(   85) = (  -0.2222222   0.5555556  -0.1111111), wk =   0.0164609
        k(   86) = (  -0.2222222   0.5555556  -0.2222222), wk =   0.0164609
        k(   87) = (  -0.2222222   0.5555556  -0.3333333), wk =   0.0164609
        k(   88) = (  -0.2222222   0.5555556  -0.4444444), wk =   0.0164609

     Dense  grid:   166539 G-vectors     FFT dimensions: (  80,  80,  64)

     Smooth grid:    58737 G-vectors     FFT dimensions: (  54,  54,  45)

     Dynamical RAM for                 wfc:       3.82 MB

     Dynamical RAM for     wfc (w. buffer):     675.76 MB

     Dynamical RAM for           str. fact:       7.62 MB

     Dynamical RAM for           local pot:       0.00 MB

     Dynamical RAM for          nlocal pot:       9.21 MB

     Dynamical RAM for                qrad:       5.27 MB

     Dynamical RAM for          rho,v,vnew:      34.00 MB

     Dynamical RAM for               rhoin:      11.33 MB

     Dynamical RAM for            rho*nmix:      81.32 MB

     Dynamical RAM for           G-vectors:       9.98 MB

     Dynamical RAM for          h,s,v(r/c):       0.21 MB

     Dynamical RAM for          <psi|beta>:       0.04 MB

     Dynamical RAM for                 psi:       7.64 MB

     Dynamical RAM for                hpsi:       7.64 MB

     Dynamical RAM for                spsi:       7.64 MB

     Dynamical RAM for      wfcinit/wfcrot:       8.11 MB

     Dynamical RAM for           addusdens:     490.45 MB

     Dynamical RAM for          addusforce:     515.91 MB

     Dynamical RAM for         addusstress:     514.59 MB

     Estimated static dynamical RAM per process >     782.08 MB

     Estimated max dynamical RAM per process >       1.35 GB
     Generating pointlists ...
     new r_m :   0.1208 (alat units)  1.3202 (a.u.) for type    1
     new r_m :   0.2118 (alat units)  2.3155 (a.u.) for type    2
     new r_m :   0.1208 (alat units)  1.3202 (a.u.) for type    3

     Initial potential from superposition of free atoms

     starting charge      55.9994, renormalised to      56.0000
     Starting wfcs are   36 randomized atomic wfcs

     total cpu time spent up to now is        6.0 secs

     per-process dynamical memory:  1438.4 Mb

     Self-consistent Calculation
[tb_dev] Currently allocated     4.10E+00 Mbytes, locked:    0 /  11
[tb_pin] Currently allocated     0.00E+00 Mbytes, locked:    0 /   0

     iteration #  1     ecut=    60.00 Ry     beta= 0.40
     Davidson diagonalization with overlap

---- Real-time Memory Report at c_bands before calling an iterative solver
          1614 MiB given to the printing process from OS
          1415 MiB allocation reported by mallinfo(arena+hblkhd)
         58266 MiB available memory on the node where the printing process lives
     GPU memory used/free/total (MiB): 1040 / 15240 / 16280
------------------
     ethr =  1.00E-02,  avg # of iterations =  4.1

     total cpu time spent up to now is       12.4 secs

     total energy              =    -341.34994845 Ry
     estimated scf accuracy    <       1.99174996 Ry

     total magnetization       =     4.00 Bohr mag/cell
     absolute magnetization    =     4.33 Bohr mag/cell
[tb_dev] Currently allocated     4.10E+00 Mbytes, locked:    0 /   9
[tb_pin] Currently allocated     0.00E+00 Mbytes, locked:    0 /   0

     iteration #  2     ecut=    60.00 Ry     beta= 0.40
     Davidson diagonalization with overlap

---- Real-time Memory Report at c_bands before calling an iterative solver
          1672 MiB given to the printing process from OS
          1453 MiB allocation reported by mallinfo(arena+hblkhd)
         58235 MiB available memory on the node where the printing process lives
     GPU memory used/free/total (MiB): 1656 / 14624 / 16280
------------------
     ethr =  3.56E-03,  avg # of iterations =  2.1

     total cpu time spent up to now is       18.2 secs

     total energy              =    -339.91500526 Ry
     estimated scf accuracy    <      15.92847665 Ry

     total magnetization       =     3.73 Bohr mag/cell
     absolute magnetization    =     3.85 Bohr mag/cell
[tb_dev] Currently allocated     4.10E+00 Mbytes, locked:    0 /   9
[tb_pin] Currently allocated     0.00E+00 Mbytes, locked:    0 /   0

     iteration #  3     ecut=    60.00 Ry     beta= 0.40
     Davidson diagonalization with overlap

---- Real-time Memory Report at c_bands before calling an iterative solver
          1678 MiB given to the printing process from OS
          1459 MiB allocation reported by mallinfo(arena+hblkhd)
         58232 MiB available memory on the node where the printing process lives
     GPU memory used/free/total (MiB): 1808 / 14472 / 16280
------------------
     ethr =  3.56E-03,  avg # of iterations =  2.0

     total cpu time spent up to now is       23.3 secs

     total energy              =    -342.04274246 Ry
     estimated scf accuracy    <       1.02297397 Ry

     total magnetization       =     4.00 Bohr mag/cell
     absolute magnetization    =     4.25 Bohr mag/cell
[tb_dev] Currently allocated     4.10E+00 Mbytes, locked:    0 /   9
[tb_pin] Currently allocated     0.00E+00 Mbytes, locked:    0 /   0

     iteration #  4     ecut=    60.00 Ry     beta= 0.40
     Davidson diagonalization with overlap

---- Real-time Memory Report at c_bands before calling an iterative solver
          1681 MiB given to the printing process from OS
          1462 MiB allocation reported by mallinfo(arena+hblkhd)
         58227 MiB available memory on the node where the printing process lives
     GPU memory used/free/total (MiB): 1836 / 14444 / 16280
------------------
     ethr =  1.83E-03,  avg # of iterations =  1.0

     total cpu time spent up to now is       27.8 secs

     total energy              =    -341.86962009 Ry
     estimated scf accuracy    <       0.71958740 Ry

     total magnetization       =     4.00 Bohr mag/cell
     absolute magnetization    =     4.20 Bohr mag/cell
[tb_dev] Currently allocated     4.10E+00 Mbytes, locked:    0 /   9
[tb_pin] Currently allocated     0.00E+00 Mbytes, locked:    0 /   0

     iteration #  5     ecut=    60.00 Ry     beta= 0.40
     Davidson diagonalization with overlap

---- Real-time Memory Report at c_bands before calling an iterative solver
          1687 MiB given to the printing process from OS
          1468 MiB allocation reported by mallinfo(arena+hblkhd)
         58222 MiB available memory on the node where the printing process lives
     GPU memory used/free/total (MiB): 1836 / 14444 / 16280
------------------
     ethr =  1.28E-03,  avg # of iterations =  1.5

     total cpu time spent up to now is       32.7 secs

     total energy              =    -342.08497738 Ry
     estimated scf accuracy    <       0.53422867 Ry

     total magnetization       =     8.16 Bohr mag/cell
     absolute magnetization    =     8.17 Bohr mag/cell
[tb_dev] Currently allocated     4.10E+00 Mbytes, locked:    0 /   9
[tb_pin] Currently allocated     0.00E+00 Mbytes, locked:    0 /   0

     iteration #  6     ecut=    60.00 Ry     beta= 0.40
     Davidson diagonalization with overlap

---- Real-time Memory Report at c_bands before calling an iterative solver
          1691 MiB given to the printing process from OS
          1471 MiB allocation reported by mallinfo(arena+hblkhd)
         58218 MiB available memory on the node where the printing process lives
     GPU memory used/free/total (MiB): 1852 / 14428 / 16280
------------------
     ethr =  9.54E-04,  avg # of iterations =  1.0

     total cpu time spent up to now is       37.1 secs

     total energy              =    -342.10148800 Ry
     estimated scf accuracy    <       0.53725005 Ry

     total magnetization       =     8.21 Bohr mag/cell
     absolute magnetization    =     8.22 Bohr mag/cell
[tb_dev] Currently allocated     4.10E+00 Mbytes, locked:    0 /   9
[tb_pin] Currently allocated     0.00E+00 Mbytes, locked:    0 /   0

     iteration #  7     ecut=    60.00 Ry     beta= 0.40
     Davidson diagonalization with overlap

---- Real-time Memory Report at c_bands before calling an iterative solver
          1694 MiB given to the printing process from OS
          1475 MiB allocation reported by mallinfo(arena+hblkhd)
         58215 MiB available memory on the node where the printing process lives
     GPU memory used/free/total (MiB): 1852 / 14428 / 16280
------------------
     ethr =  9.54E-04,  avg # of iterations =  1.0

     total cpu time spent up to now is       41.5 secs

     total energy              =    -342.05370275 Ry
     estimated scf accuracy    <       0.49630572 Ry

     total magnetization       =     8.40 Bohr mag/cell
     absolute magnetization    =     8.42 Bohr mag/cell
[tb_dev] Currently allocated     4.10E+00 Mbytes, locked:    0 /   9
[tb_pin] Currently allocated     0.00E+00 Mbytes, locked:    0 /   0

     iteration #  8     ecut=    60.00 Ry     beta= 0.40
     Davidson diagonalization with overlap

---- Real-time Memory Report at c_bands before calling an iterative solver
          1698 MiB given to the printing process from OS
          1479 MiB allocation reported by mallinfo(arena+hblkhd)
         58213 MiB available memory on the node where the printing process lives
     GPU memory used/free/total (MiB): 1852 / 14428 / 16280
------------------
     ethr =  8.86E-04,  avg # of iterations =  1.5

     total cpu time spent up to now is       46.3 secs

     total energy              =    -342.06304212 Ry
     estimated scf accuracy    <       0.24420285 Ry

     total magnetization       =     8.19 Bohr mag/cell
     absolute magnetization    =     8.24 Bohr mag/cell
[tb_dev] Currently allocated     4.10E+00 Mbytes, locked:    0 /   9
[tb_pin] Currently allocated     0.00E+00 Mbytes, locked:    0 /   0

     iteration #  9     ecut=    60.00 Ry     beta= 0.40
     Davidson diagonalization with overlap

---- Real-time Memory Report at c_bands before calling an iterative solver
          1701 MiB given to the printing process from OS
          1482 MiB allocation reported by mallinfo(arena+hblkhd)
         58210 MiB available memory on the node where the printing process lives
     GPU memory used/free/total (MiB): 1852 / 14428 / 16280
------------------
     ethr =  4.36E-04,  avg # of iterations =  1.0

     total cpu time spent up to now is       50.7 secs

     total energy              =    -342.05639288 Ry
     estimated scf accuracy    <       0.18761734 Ry

     total magnetization       =     8.16 Bohr mag/cell
     absolute magnetization    =     8.24 Bohr mag/cell
[tb_dev] Currently allocated     4.10E+00 Mbytes, locked:    0 /   9
[tb_pin] Currently allocated     0.00E+00 Mbytes, locked:    0 /   0

     iteration # 10     ecut=    60.00 Ry     beta= 0.40
     Davidson diagonalization with overlap

---- Real-time Memory Report at c_bands before calling an iterative solver
          1705 MiB given to the printing process from OS
          1486 MiB allocation reported by mallinfo(arena+hblkhd)
         58208 MiB available memory on the node where the printing process lives
     GPU memory used/free/total (MiB): 1852 / 14428 / 16280
------------------
     ethr =  3.35E-04,  avg # of iterations =  1.0

     total cpu time spent up to now is       55.2 secs

     total energy              =    -342.06005260 Ry
     estimated scf accuracy    <       0.15565306 Ry

     total magnetization       =     8.06 Bohr mag/cell
     absolute magnetization    =     8.13 Bohr mag/cell
[tb_dev] Currently allocated     4.10E+00 Mbytes, locked:    0 /   9
[tb_pin] Currently allocated     0.00E+00 Mbytes, locked:    0 /   0

     iteration # 11     ecut=    60.00 Ry     beta= 0.40
     Davidson diagonalization with overlap

---- Real-time Memory Report at c_bands before calling an iterative solver
          1705 MiB given to the printing process from OS
          1486 MiB allocation reported by mallinfo(arena+hblkhd)
         58207 MiB available memory on the node where the printing process lives
     GPU memory used/free/total (MiB): 1852 / 14428 / 16280
------------------
     ethr =  2.78E-04,  avg # of iterations =  1.0

     total cpu time spent up to now is       59.6 secs

     total energy              =    -342.06252093 Ry
     estimated scf accuracy    <       0.21264518 Ry

     total magnetization       =     8.32 Bohr mag/cell
     absolute magnetization    =     8.38 Bohr mag/cell
[tb_dev] Currently allocated     4.10E+00 Mbytes, locked:    0 /   9
[tb_pin] Currently allocated     0.00E+00 Mbytes, locked:    0 /   0

     iteration # 12     ecut=    60.00 Ry     beta= 0.40
     Davidson diagonalization with overlap

---- Real-time Memory Report at c_bands before calling an iterative solver
          1705 MiB given to the printing process from OS
          1486 MiB allocation reported by mallinfo(arena+hblkhd)
         58206 MiB available memory on the node where the printing process lives
     GPU memory used/free/total (MiB): 1852 / 14428 / 16280
------------------
     ethr =  2.78E-04,  avg # of iterations =  1.0

     total cpu time spent up to now is       64.1 secs

     total energy              =    -342.06012780 Ry
     estimated scf accuracy    <       0.21987619 Ry

     total magnetization       =     8.34 Bohr mag/cell
     absolute magnetization    =     8.40 Bohr mag/cell
[tb_dev] Currently allocated     4.10E+00 Mbytes, locked:    0 /   9
[tb_pin] Currently allocated     0.00E+00 Mbytes, locked:    0 /   0

     iteration # 13     ecut=    60.00 Ry     beta= 0.40
     Davidson diagonalization with overlap

---- Real-time Memory Report at c_bands before calling an iterative solver
          1705 MiB given to the printing process from OS
          1486 MiB allocation reported by mallinfo(arena+hblkhd)
         58207 MiB available memory on the node where the printing process lives
     GPU memory used/free/total (MiB): 1852 / 14428 / 16280
------------------
     ethr =  2.78E-04,  avg # of iterations =  1.0

     total cpu time spent up to now is       68.6 secs

     total energy              =    -342.03029259 Ry
     estimated scf accuracy    <       0.21075468 Ry

     total magnetization       =     8.32 Bohr mag/cell
     absolute magnetization    =     8.38 Bohr mag/cell
[tb_dev] Currently allocated     4.10E+00 Mbytes, locked:    0 /   9
[tb_pin] Currently allocated     0.00E+00 Mbytes, locked:    0 /   0

     iteration # 14     ecut=    60.00 Ry     beta= 0.40
     Davidson diagonalization with overlap

---- Real-time Memory Report at c_bands before calling an iterative solver
          1705 MiB given to the printing process from OS
          1486 MiB allocation reported by mallinfo(arena+hblkhd)
         58207 MiB available memory on the node where the printing process lives
     GPU memory used/free/total (MiB): 1852 / 14428 / 16280
------------------
     ethr =  2.78E-04,  avg # of iterations =  1.0

     total cpu time spent up to now is       73.2 secs

     total energy              =    -342.03117182 Ry
     estimated scf accuracy    <       0.55429318 Ry

     total magnetization       =     3.71 Bohr mag/cell
     absolute magnetization    =     4.38 Bohr mag/cell
[tb_dev] Currently allocated     4.10E+00 Mbytes, locked:    0 /   9
[tb_pin] Currently allocated     0.00E+00 Mbytes, locked:    0 /   0

     iteration # 15     ecut=    60.00 Ry     beta= 0.40
     Davidson diagonalization with overlap

---- Real-time Memory Report at c_bands before calling an iterative solver
          1705 MiB given to the printing process from OS
          1486 MiB allocation reported by mallinfo(arena+hblkhd)
         58209 MiB available memory on the node where the printing process lives
     GPU memory used/free/total (MiB): 1852 / 14428 / 16280
------------------
     ethr =  2.78E-04,  avg # of iterations =  1.0

     total cpu time spent up to now is       77.8 secs

     total energy              =    -342.05599621 Ry
     estimated scf accuracy    <       0.07687018 Ry

     total magnetization       =     7.46 Bohr mag/cell
     absolute magnetization    =     7.51 Bohr mag/cell
[tb_dev] Currently allocated     4.10E+00 Mbytes, locked:    0 /   9
[tb_pin] Currently allocated     0.00E+00 Mbytes, locked:    0 /   0

     iteration # 16     ecut=    60.00 Ry     beta= 0.40
     Davidson diagonalization with overlap

---- Real-time Memory Report at c_bands before calling an iterative solver
          1705 MiB given to the printing process from OS
          1486 MiB allocation reported by mallinfo(arena+hblkhd)
         58207 MiB available memory on the node where the printing process lives
     GPU memory used/free/total (MiB): 1852 / 14428 / 16280
------------------
     ethr =  1.37E-04,  avg # of iterations =  1.0

     total cpu time spent up to now is       82.2 secs

     total energy              =    -342.04978324 Ry
     estimated scf accuracy    <       0.12669918 Ry

     total magnetization       =     7.77 Bohr mag/cell
     absolute magnetization    =     7.82 Bohr mag/cell
[tb_dev] Currently allocated     4.10E+00 Mbytes, locked:    0 /   9
[tb_pin] Currently allocated     0.00E+00 Mbytes, locked:    0 /   0

     iteration # 17     ecut=    60.00 Ry     beta= 0.40
     Davidson diagonalization with overlap

---- Real-time Memory Report at c_bands before calling an iterative solver
          1705 MiB given to the printing process from OS
          1486 MiB allocation reported by mallinfo(arena+hblkhd)
         58207 MiB available memory on the node where the printing process lives
     GPU memory used/free/total (MiB): 1852 / 14428 / 16280
------------------
     ethr =  1.37E-04,  avg # of iterations =  1.1

     total cpu time spent up to now is       86.6 secs

     total energy              =    -342.05205544 Ry
     estimated scf accuracy    <       0.00082763 Ry

     total magnetization       =     6.49 Bohr mag/cell
     absolute magnetization    =     6.55 Bohr mag/cell
[tb_dev] Currently allocated     4.10E+00 Mbytes, locked:    0 /   9
[tb_pin] Currently allocated     0.00E+00 Mbytes, locked:    0 /   0

     iteration # 18     ecut=    60.00 Ry     beta= 0.40
     Davidson diagonalization with overlap

---- Real-time Memory Report at c_bands before calling an iterative solver
          1705 MiB given to the printing process from OS
          1486 MiB allocation reported by mallinfo(arena+hblkhd)
         58208 MiB available memory on the node where the printing process lives
     GPU memory used/free/total (MiB): 1852 / 14428 / 16280
------------------
     ethr =  1.48E-06,  avg # of iterations =  5.6

     total cpu time spent up to now is       94.1 secs

     total energy              =    -342.04478402 Ry
     estimated scf accuracy    <       0.18400040 Ry

     total magnetization       =     4.84 Bohr mag/cell
     absolute magnetization    =     5.00 Bohr mag/cell
[tb_dev] Currently allocated     4.10E+00 Mbytes, locked:    0 /   9
[tb_pin] Currently allocated     0.00E+00 Mbytes, locked:    0 /   0

     iteration # 19     ecut=    60.00 Ry     beta= 0.40
     Davidson diagonalization with overlap

---- Real-time Memory Report at c_bands before calling an iterative solver
          1705 MiB given to the printing process from OS
          1486 MiB allocation reported by mallinfo(arena+hblkhd)
         58210 MiB available memory on the node where the printing process lives
     GPU memory used/free/total (MiB): 1852 / 14428 / 16280
------------------
     ethr =  1.48E-06,  avg # of iterations =  2.7

     total cpu time spent up to now is      100.3 secs

     total energy              =    -342.05385924 Ry
     estimated scf accuracy    <       0.03914750 Ry

     total magnetization       =     7.19 Bohr mag/cell
     absolute magnetization    =     7.25 Bohr mag/cell
[tb_dev] Currently allocated     4.10E+00 Mbytes, locked:    0 /   9
[tb_pin] Currently allocated     0.00E+00 Mbytes, locked:    0 /   0

     iteration # 20     ecut=    60.00 Ry     beta= 0.40
     Davidson diagonalization with overlap

---- Real-time Memory Report at c_bands before calling an iterative solver
          1705 MiB given to the printing process from OS
          1486 MiB allocation reported by mallinfo(arena+hblkhd)
         58210 MiB available memory on the node where the printing process lives
     GPU memory used/free/total (MiB): 1852 / 14428 / 16280
------------------
     ethr =  1.48E-06,  avg # of iterations =  1.0

     total cpu time spent up to now is      104.6 secs

     total energy              =    -342.05237542 Ry
     estimated scf accuracy    <       0.06595229 Ry

     total magnetization       =     7.42 Bohr mag/cell
     absolute magnetization    =     7.47 Bohr mag/cell
[tb_dev] Currently allocated     4.10E+00 Mbytes, locked:    0 /   9
[tb_pin] Currently allocated     0.00E+00 Mbytes, locked:    0 /   0

     iteration # 21     ecut=    60.00 Ry     beta= 0.40
     Davidson diagonalization with overlap

---- Real-time Memory Report at c_bands before calling an iterative solver
          1705 MiB given to the printing process from OS
          1486 MiB allocation reported by mallinfo(arena+hblkhd)
         58210 MiB available memory on the node where the printing process lives
     GPU memory used/free/total (MiB): 1852 / 14428 / 16280
------------------
     ethr =  1.48E-06,  avg # of iterations =  1.0

     total cpu time spent up to now is      109.2 secs

     total energy              =    -342.05261112 Ry
     estimated scf accuracy    <       0.01952307 Ry

     total magnetization       =     6.94 Bohr mag/cell
     absolute magnetization    =     7.00 Bohr mag/cell
[tb_dev] Currently allocated     4.10E+00 Mbytes, locked:    0 /   9
[tb_pin] Currently allocated     0.00E+00 Mbytes, locked:    0 /   0

     iteration # 22     ecut=    60.00 Ry     beta= 0.40
     Davidson diagonalization with overlap

---- Real-time Memory Report at c_bands before calling an iterative solver
          1705 MiB given to the printing process from OS
          1486 MiB allocation reported by mallinfo(arena+hblkhd)
         58204 MiB available memory on the node where the printing process lives
     GPU memory used/free/total (MiB): 1852 / 14428 / 16280
------------------
     ethr =  1.48E-06,  avg # of iterations =  1.0

     total cpu time spent up to now is      113.6 secs

     total energy              =    -342.05248178 Ry
     estimated scf accuracy    <       0.01251915 Ry

     total magnetization       =     6.82 Bohr mag/cell
     absolute magnetization    =     6.88 Bohr mag/cell
[tb_dev] Currently allocated     4.10E+00 Mbytes, locked:    0 /   9
[tb_pin] Currently allocated     0.00E+00 Mbytes, locked:    0 /   0

     iteration # 23     ecut=    60.00 Ry     beta= 0.40
     Davidson diagonalization with overlap

---- Real-time Memory Report at c_bands before calling an iterative solver
          1705 MiB given to the printing process from OS
          1486 MiB allocation reported by mallinfo(arena+hblkhd)
         58205 MiB available memory on the node where the printing process lives
     GPU memory used/free/total (MiB): 1852 / 14428 / 16280
------------------
     ethr =  1.48E-06,  avg # of iterations =  1.0

     total cpu time spent up to now is      118.2 secs

     total energy              =    -342.05263365 Ry
     estimated scf accuracy    <       0.00379495 Ry

     total magnetization       =     6.58 Bohr mag/cell
     absolute magnetization    =     6.64 Bohr mag/cell
[tb_dev] Currently allocated     4.10E+00 Mbytes, locked:    0 /   9
[tb_pin] Currently allocated     0.00E+00 Mbytes, locked:    0 /   0

     iteration # 24     ecut=    60.00 Ry     beta= 0.40
     Davidson diagonalization with overlap

---- Real-time Memory Report at c_bands before calling an iterative solver
          1705 MiB given to the printing process from OS
          1486 MiB allocation reported by mallinfo(arena+hblkhd)
         58208 MiB available memory on the node where the printing process lives
     GPU memory used/free/total (MiB): 1852 / 14428 / 16280
------------------
     ethr =  1.48E-06,  avg # of iterations =  1.0

     total cpu time spent up to now is      122.6 secs

     total energy              =    -342.05266764 Ry
     estimated scf accuracy    <       0.00537137 Ry

     total magnetization       =     6.63 Bohr mag/cell
     absolute magnetization    =     6.69 Bohr mag/cell
[tb_dev] Currently allocated     4.10E+00 Mbytes, locked:    0 /   9
[tb_pin] Currently allocated     0.00E+00 Mbytes, locked:    0 /   0

     iteration # 25     ecut=    60.00 Ry     beta= 0.40
     Davidson diagonalization with overlap

---- Real-time Memory Report at c_bands before calling an iterative solver
          1705 MiB given to the printing process from OS
          1486 MiB allocation reported by mallinfo(arena+hblkhd)
         58208 MiB available memory on the node where the printing process lives
     GPU memory used/free/total (MiB): 1852 / 14428 / 16280
------------------
     ethr =  1.48E-06,  avg # of iterations =  1.5

     total cpu time spent up to now is      127.5 secs

     total energy              =    -342.05269812 Ry
     estimated scf accuracy    <       0.00384854 Ry

     total magnetization       =     6.55 Bohr mag/cell
     absolute magnetization    =     6.61 Bohr mag/cell
[tb_dev] Currently allocated     4.10E+00 Mbytes, locked:    0 /   9
[tb_pin] Currently allocated     0.00E+00 Mbytes, locked:    0 /   0

     iteration # 26     ecut=    60.00 Ry     beta= 0.40
     Davidson diagonalization with overlap

---- Real-time Memory Report at c_bands before calling an iterative solver
          1705 MiB given to the printing process from OS
          1486 MiB allocation reported by mallinfo(arena+hblkhd)
         58208 MiB available memory on the node where the printing process lives
     GPU memory used/free/total (MiB): 1852 / 14428 / 16280
------------------
     ethr =  1.48E-06,  avg # of iterations =  1.0

     total cpu time spent up to now is      131.9 secs

     total energy              =    -342.05249639 Ry
     estimated scf accuracy    <       0.00432755 Ry

     total magnetization       =     6.57 Bohr mag/cell
     absolute magnetization    =     6.63 Bohr mag/cell
[tb_dev] Currently allocated     4.10E+00 Mbytes, locked:    0 /   9
[tb_pin] Currently allocated     0.00E+00 Mbytes, locked:    0 /   0

     iteration # 27     ecut=    60.00 Ry     beta= 0.40
     Davidson diagonalization with overlap

---- Real-time Memory Report at c_bands before calling an iterative solver
          1705 MiB given to the printing process from OS
          1486 MiB allocation reported by mallinfo(arena+hblkhd)
         58208 MiB available memory on the node where the printing process lives
     GPU memory used/free/total (MiB): 1852 / 14428 / 16280
------------------
     ethr =  1.48E-06,  avg # of iterations =  1.5

     total cpu time spent up to now is      136.7 secs

     total energy              =    -342.05275885 Ry
     estimated scf accuracy    <       0.00005270 Ry

     total magnetization       =     6.23 Bohr mag/cell
     absolute magnetization    =     6.28 Bohr mag/cell
[tb_dev] Currently allocated     4.10E+00 Mbytes, locked:    0 /   9
[tb_pin] Currently allocated     0.00E+00 Mbytes, locked:    0 /   0

     iteration # 28     ecut=    60.00 Ry     beta= 0.40
     Davidson diagonalization with overlap

---- Real-time Memory Report at c_bands before calling an iterative solver
          1705 MiB given to the printing process from OS
          1486 MiB allocation reported by mallinfo(arena+hblkhd)
         58209 MiB available memory on the node where the printing process lives
     GPU memory used/free/total (MiB): 1852 / 14428 / 16280
------------------
     ethr =  9.41E-08,  avg # of iterations =  2.0

     total cpu time spent up to now is      142.5 secs

     total energy              =    -342.05282112 Ry
     estimated scf accuracy    <       0.00074183 Ry

     total magnetization       =     6.03 Bohr mag/cell
     absolute magnetization    =     6.09 Bohr mag/cell
[tb_dev] Currently allocated     4.10E+00 Mbytes, locked:    0 /   9
[tb_pin] Currently allocated     0.00E+00 Mbytes, locked:    0 /   0

     iteration # 29     ecut=    60.00 Ry     beta= 0.40
     Davidson diagonalization with overlap

---- Real-time Memory Report at c_bands before calling an iterative solver
          1705 MiB given to the printing process from OS
          1486 MiB allocation reported by mallinfo(arena+hblkhd)
         58210 MiB available memory on the node where the printing process lives
     GPU memory used/free/total (MiB): 1852 / 14428 / 16280
------------------
     ethr =  9.41E-08,  avg # of iterations =  1.6

     total cpu time spent up to now is      147.3 secs

     total energy              =    -342.05281281 Ry
     estimated scf accuracy    <       0.00016151 Ry

     total magnetization       =     6.13 Bohr mag/cell
     absolute magnetization    =     6.18 Bohr mag/cell
[tb_dev] Currently allocated     4.10E+00 Mbytes, locked:    0 /   9
[tb_pin] Currently allocated     0.00E+00 Mbytes, locked:    0 /   0

     iteration # 30     ecut=    60.00 Ry     beta= 0.40
     Davidson diagonalization with overlap

---- Real-time Memory Report at c_bands before calling an iterative solver
          1705 MiB given to the printing process from OS
          1486 MiB allocation reported by mallinfo(arena+hblkhd)
         58209 MiB available memory on the node where the printing process lives
     GPU memory used/free/total (MiB): 1852 / 14428 / 16280
------------------
     ethr =  9.41E-08,  avg # of iterations =  1.0

     total cpu time spent up to now is      151.7 secs

     total energy              =    -342.05280735 Ry
     estimated scf accuracy    <       0.00008097 Ry

     total magnetization       =     6.19 Bohr mag/cell
     absolute magnetization    =     6.25 Bohr mag/cell
[tb_dev] Currently allocated     4.10E+00 Mbytes, locked:    0 /   9
[tb_pin] Currently allocated     0.00E+00 Mbytes, locked:    0 /   0

     iteration # 31     ecut=    60.00 Ry     beta= 0.40
     Davidson diagonalization with overlap

---- Real-time Memory Report at c_bands before calling an iterative solver
          1705 MiB given to the printing process from OS
          1486 MiB allocation reported by mallinfo(arena+hblkhd)
         58210 MiB available memory on the node where the printing process lives
     GPU memory used/free/total (MiB): 1852 / 14428 / 16280
------------------
     ethr =  9.41E-08,  avg # of iterations =  1.0

     total cpu time spent up to now is      156.1 secs

     total energy              =    -342.05280526 Ry
     estimated scf accuracy    <       0.00006225 Ry

     total magnetization       =     6.20 Bohr mag/cell
     absolute magnetization    =     6.26 Bohr mag/cell
[tb_dev] Currently allocated     4.10E+00 Mbytes, locked:    0 /   9
[tb_pin] Currently allocated     0.00E+00 Mbytes, locked:    0 /   0

     iteration # 32     ecut=    60.00 Ry     beta= 0.40
     Davidson diagonalization with overlap

---- Real-time Memory Report at c_bands before calling an iterative solver
          1705 MiB given to the printing process from OS
          1486 MiB allocation reported by mallinfo(arena+hblkhd)
         58210 MiB available memory on the node where the printing process lives
     GPU memory used/free/total (MiB): 1852 / 14428 / 16280
------------------
     ethr =  9.41E-08,  avg # of iterations =  1.0

     total cpu time spent up to now is      160.6 secs

     total energy              =    -342.05280954 Ry
     estimated scf accuracy    <       0.00010884 Ry

     total magnetization       =     6.22 Bohr mag/cell
     absolute magnetization    =     6.28 Bohr mag/cell
[tb_dev] Currently allocated     4.10E+00 Mbytes, locked:    0 /   9
[tb_pin] Currently allocated     0.00E+00 Mbytes, locked:    0 /   0

     iteration # 33     ecut=    60.00 Ry     beta= 0.40
     Davidson diagonalization with overlap

---- Real-time Memory Report at c_bands before calling an iterative solver
          1705 MiB given to the printing process from OS
          1486 MiB allocation reported by mallinfo(arena+hblkhd)
         58210 MiB available memory on the node where the printing process lives
     GPU memory used/free/total (MiB): 1852 / 14428 / 16280
------------------
     ethr =  9.41E-08,  avg # of iterations =  1.0

     total cpu time spent up to now is      165.0 secs

     total energy              =    -342.05281587 Ry
     estimated scf accuracy    <       0.00008249 Ry

     total magnetization       =     6.21 Bohr mag/cell
     absolute magnetization    =     6.27 Bohr mag/cell
[tb_dev] Currently allocated     4.10E+00 Mbytes, locked:    0 /   9
[tb_pin] Currently allocated     0.00E+00 Mbytes, locked:    0 /   0

     iteration # 34     ecut=    60.00 Ry     beta= 0.40
     Davidson diagonalization with overlap

---- Real-time Memory Report at c_bands before calling an iterative solver
          1705 MiB given to the printing process from OS
          1486 MiB allocation reported by mallinfo(arena+hblkhd)
         58209 MiB available memory on the node where the printing process lives
     GPU memory used/free/total (MiB): 1852 / 14428 / 16280
------------------
     ethr =  9.41E-08,  avg # of iterations =  1.5

     total cpu time spent up to now is      169.8 secs

     total energy              =    -342.05282950 Ry
     estimated scf accuracy    <       0.00005504 Ry

     total magnetization       =     6.19 Bohr mag/cell
     absolute magnetization    =     6.24 Bohr mag/cell
[tb_dev] Currently allocated     4.10E+00 Mbytes, locked:    0 /   9
[tb_pin] Currently allocated     0.00E+00 Mbytes, locked:    0 /   0

     iteration # 35     ecut=    60.00 Ry     beta= 0.40
     Davidson diagonalization with overlap

---- Real-time Memory Report at c_bands before calling an iterative solver
          1705 MiB given to the printing process from OS
          1486 MiB allocation reported by mallinfo(arena+hblkhd)
         58210 MiB available memory on the node where the printing process lives
     GPU memory used/free/total (MiB): 1852 / 14428 / 16280
------------------
     ethr =  9.41E-08,  avg # of iterations =  1.0

     total cpu time spent up to now is      174.2 secs

     total energy              =    -342.05283481 Ry
     estimated scf accuracy    <       0.00004738 Ry

     total magnetization       =     6.18 Bohr mag/cell
     absolute magnetization    =     6.23 Bohr mag/cell
[tb_dev] Currently allocated     4.10E+00 Mbytes, locked:    0 /   9
[tb_pin] Currently allocated     0.00E+00 Mbytes, locked:    0 /   0

     iteration # 36     ecut=    60.00 Ry     beta= 0.40
     Davidson diagonalization with overlap

---- Real-time Memory Report at c_bands before calling an iterative solver
          1705 MiB given to the printing process from OS
          1486 MiB allocation reported by mallinfo(arena+hblkhd)
         58210 MiB available memory on the node where the printing process lives
     GPU memory used/free/total (MiB): 1852 / 14428 / 16280
------------------
     ethr =  8.46E-08,  avg # of iterations =  1.5

     total cpu time spent up to now is      179.0 secs

     total energy              =    -342.05285077 Ry
     estimated scf accuracy    <       0.00002652 Ry

     total magnetization       =     6.11 Bohr mag/cell
     absolute magnetization    =     6.17 Bohr mag/cell
[tb_dev] Currently allocated     4.10E+00 Mbytes, locked:    0 /   9
[tb_pin] Currently allocated     0.00E+00 Mbytes, locked:    0 /   0

     iteration # 37     ecut=    60.00 Ry     beta= 0.40
     Davidson diagonalization with overlap

---- Real-time Memory Report at c_bands before calling an iterative solver
          1705 MiB given to the printing process from OS
          1486 MiB allocation reported by mallinfo(arena+hblkhd)
         58210 MiB available memory on the node where the printing process lives
     GPU memory used/free/total (MiB): 1852 / 14428 / 16280
------------------
     ethr =  4.74E-08,  avg # of iterations =  1.0

     total cpu time spent up to now is      183.4 secs

     total energy              =    -342.05284999 Ry
     estimated scf accuracy    <       0.00004966 Ry

     total magnetization       =     6.10 Bohr mag/cell
     absolute magnetization    =     6.16 Bohr mag/cell
[tb_dev] Currently allocated     4.10E+00 Mbytes, locked:    0 /   9
[tb_pin] Currently allocated     0.00E+00 Mbytes, locked:    0 /   0

     iteration # 38     ecut=    60.00 Ry     beta= 0.40
     Davidson diagonalization with overlap

---- Real-time Memory Report at c_bands before calling an iterative solver
          1705 MiB given to the printing process from OS
          1486 MiB allocation reported by mallinfo(arena+hblkhd)
         58210 MiB available memory on the node where the printing process lives
     GPU memory used/free/total (MiB): 1852 / 14428 / 16280
------------------
     ethr =  4.74E-08,  avg # of iterations =  1.0

     total cpu time spent up to now is      187.9 secs

     total energy              =    -342.05285634 Ry
     estimated scf accuracy    <       0.00004126 Ry

     total magnetization       =     6.11 Bohr mag/cell
     absolute magnetization    =     6.16 Bohr mag/cell
[tb_dev] Currently allocated     4.10E+00 Mbytes, locked:    0 /   9
[tb_pin] Currently allocated     0.00E+00 Mbytes, locked:    0 /   0

     iteration # 39     ecut=    60.00 Ry     beta= 0.40
     Davidson diagonalization with overlap

---- Real-time Memory Report at c_bands before calling an iterative solver
          1705 MiB given to the printing process from OS
          1486 MiB allocation reported by mallinfo(arena+hblkhd)
         58211 MiB available memory on the node where the printing process lives
     GPU memory used/free/total (MiB): 1852 / 14428 / 16280
------------------
     ethr =  4.74E-08,  avg # of iterations =  1.0

     total cpu time spent up to now is      192.3 secs

     total energy              =    -342.05286504 Ry
     estimated scf accuracy    <       0.00001564 Ry

     total magnetization       =     6.11 Bohr mag/cell
     absolute magnetization    =     6.16 Bohr mag/cell
[tb_dev] Currently allocated     4.10E+00 Mbytes, locked:    0 /   9
[tb_pin] Currently allocated     0.00E+00 Mbytes, locked:    0 /   0

     iteration # 40     ecut=    60.00 Ry     beta= 0.40
     Davidson diagonalization with overlap

---- Real-time Memory Report at c_bands before calling an iterative solver
          1705 MiB given to the printing process from OS
          1486 MiB allocation reported by mallinfo(arena+hblkhd)
         58211 MiB available memory on the node where the printing process lives
     GPU memory used/free/total (MiB): 1852 / 14428 / 16280
------------------
     ethr =  2.79E-08,  avg # of iterations =  2.0

     total cpu time spent up to now is      197.4 secs

     total energy              =    -342.05271624 Ry
     estimated scf accuracy    <       0.00001144 Ry

     total magnetization       =     6.08 Bohr mag/cell
     absolute magnetization    =     6.13 Bohr mag/cell
[tb_dev] Currently allocated     4.10E+00 Mbytes, locked:    0 /   9
[tb_pin] Currently allocated     0.00E+00 Mbytes, locked:    0 /   0

     iteration # 41     ecut=    60.00 Ry     beta= 0.40
     Davidson diagonalization with overlap

---- Real-time Memory Report at c_bands before calling an iterative solver
          1705 MiB given to the printing process from OS
          1486 MiB allocation reported by mallinfo(arena+hblkhd)
         58211 MiB available memory on the node where the printing process lives
     GPU memory used/free/total (MiB): 1852 / 14428 / 16280
------------------
     ethr =  2.04E-08,  avg # of iterations =  3.0

     total cpu time spent up to now is      204.2 secs

     total energy              =    -342.05287474 Ry
     estimated scf accuracy    <       0.00001344 Ry

     total magnetization       =     5.92 Bohr mag/cell
     absolute magnetization    =     6.01 Bohr mag/cell
[tb_dev] Currently allocated     4.10E+00 Mbytes, locked:    0 /   9
[tb_pin] Currently allocated     0.00E+00 Mbytes, locked:    0 /   0

     iteration # 42     ecut=    60.00 Ry     beta= 0.40
     Davidson diagonalization with overlap

---- Real-time Memory Report at c_bands before calling an iterative solver
          1705 MiB given to the printing process from OS
          1486 MiB allocation reported by mallinfo(arena+hblkhd)
         58211 MiB available memory on the node where the printing process lives
     GPU memory used/free/total (MiB): 1852 / 14428 / 16280
------------------
     ethr =  2.04E-08,  avg # of iterations =  3.0

     total cpu time spent up to now is      211.0 secs

     total energy              =    -342.05194036 Ry
     estimated scf accuracy    <       0.00001414 Ry

     total magnetization       =     5.84 Bohr mag/cell
     absolute magnetization    =     5.97 Bohr mag/cell
[tb_dev] Currently allocated     4.10E+00 Mbytes, locked:    0 /   9
[tb_pin] Currently allocated     0.00E+00 Mbytes, locked:    0 /   0

     iteration # 43     ecut=    60.00 Ry     beta= 0.40
     Davidson diagonalization with overlap

---- Real-time Memory Report at c_bands before calling an iterative solver
          1705 MiB given to the printing process from OS
          1486 MiB allocation reported by mallinfo(arena+hblkhd)
         58209 MiB available memory on the node where the printing process lives
     GPU memory used/free/total (MiB): 1852 / 14428 / 16280
------------------
     ethr =  2.04E-08,  avg # of iterations =  4.2

     total cpu time spent up to now is      219.3 secs

     total energy              =    -342.05084731 Ry
     estimated scf accuracy    <       0.00013999 Ry

     total magnetization       =     6.19 Bohr mag/cell
     absolute magnetization    =     6.24 Bohr mag/cell
[tb_dev] Currently allocated     4.10E+00 Mbytes, locked:    0 /   9
[tb_pin] Currently allocated     0.00E+00 Mbytes, locked:    0 /   0

     iteration # 44     ecut=    60.00 Ry     beta= 0.40
     Davidson diagonalization with overlap

---- Real-time Memory Report at c_bands before calling an iterative solver
          1705 MiB given to the printing process from OS
          1486 MiB allocation reported by mallinfo(arena+hblkhd)
         58210 MiB available memory on the node where the printing process lives
     GPU memory used/free/total (MiB): 1852 / 14428 / 16280
------------------
     ethr =  2.04E-08,  avg # of iterations =  5.0

     total cpu time spent up to now is      228.3 secs

     total energy              =    -342.04950490 Ry
     estimated scf accuracy    <       0.00038801 Ry

     total magnetization       =     5.64 Bohr mag/cell
     absolute magnetization    =     5.93 Bohr mag/cell
[tb_dev] Currently allocated     4.10E+00 Mbytes, locked:    0 /   9
[tb_pin] Currently allocated     0.00E+00 Mbytes, locked:    0 /   0

     iteration # 45     ecut=    60.00 Ry     beta= 0.40
     Davidson diagonalization with overlap

---- Real-time Memory Report at c_bands before calling an iterative solver
          1705 MiB given to the printing process from OS
          1486 MiB allocation reported by mallinfo(arena+hblkhd)
         58212 MiB available memory on the node where the printing process lives
     GPU memory used/free/total (MiB): 1852 / 14428 / 16280
------------------
     ethr =  2.04E-08,  avg # of iterations =  5.5

     total cpu time spent up to now is      238.1 secs

     total energy              =    -342.05261492 Ry
     estimated scf accuracy    <       0.00022189 Ry

     total magnetization       =     6.26 Bohr mag/cell
     absolute magnetization    =     6.31 Bohr mag/cell
[tb_dev] Currently allocated     4.10E+00 Mbytes, locked:    0 /   9
[tb_pin] Currently allocated     0.00E+00 Mbytes, locked:    0 /   0

     iteration # 46     ecut=    60.00 Ry     beta= 0.40
     Davidson diagonalization with overlap

---- Real-time Memory Report at c_bands before calling an iterative solver
          1705 MiB given to the printing process from OS
          1486 MiB allocation reported by mallinfo(arena+hblkhd)
         58211 MiB available memory on the node where the printing process lives
     GPU memory used/free/total (MiB): 1852 / 14428 / 16280
------------------
     ethr =  2.04E-08,  avg # of iterations =  3.0

     total cpu time spent up to now is      244.9 secs

     total energy              =    -342.05255124 Ry
     estimated scf accuracy    <       0.00054671 Ry

     total magnetization       =     6.36 Bohr mag/cell
     absolute magnetization    =     6.42 Bohr mag/cell
[tb_dev] Currently allocated     4.10E+00 Mbytes, locked:    0 /   9
[tb_pin] Currently allocated     0.00E+00 Mbytes, locked:    0 /   0

     iteration # 47     ecut=    60.00 Ry     beta= 0.40
     Davidson diagonalization with overlap

---- Real-time Memory Report at c_bands before calling an iterative solver
          1705 MiB given to the printing process from OS
          1486 MiB allocation reported by mallinfo(arena+hblkhd)
         58211 MiB available memory on the node where the printing process lives
     GPU memory used/free/total (MiB): 1852 / 14428 / 16280
------------------
     ethr =  2.04E-08,  avg # of iterations =  3.0

     total cpu time spent up to now is      251.7 secs

     total energy              =    -342.05246493 Ry
     estimated scf accuracy    <       0.00093603 Ry

     total magnetization       =     6.43 Bohr mag/cell
     absolute magnetization    =     6.49 Bohr mag/cell
[tb_dev] Currently allocated     4.10E+00 Mbytes, locked:    0 /   9
[tb_pin] Currently allocated     0.00E+00 Mbytes, locked:    0 /   0

     iteration # 48     ecut=    60.00 Ry     beta= 0.40
     Davidson diagonalization with overlap

---- Real-time Memory Report at c_bands before calling an iterative solver
          1705 MiB given to the printing process from OS
          1486 MiB allocation reported by mallinfo(arena+hblkhd)
         58213 MiB available memory on the node where the printing process lives
     GPU memory used/free/total (MiB): 1852 / 14428 / 16280
------------------
     ethr =  2.04E-08,  avg # of iterations =  2.3

     total cpu time spent up to now is      257.9 secs

     total energy              =    -342.05254458 Ry
     estimated scf accuracy    <       0.00133205 Ry

     total magnetization       =     6.49 Bohr mag/cell
     absolute magnetization    =     6.55 Bohr mag/cell
[tb_dev] Currently allocated     4.10E+00 Mbytes, locked:    0 /   9
[tb_pin] Currently allocated     0.00E+00 Mbytes, locked:    0 /   0

     iteration # 49     ecut=    60.00 Ry     beta= 0.40
     Davidson diagonalization with overlap

---- Real-time Memory Report at c_bands before calling an iterative solver
          1705 MiB given to the printing process from OS
          1486 MiB allocation reported by mallinfo(arena+hblkhd)
         58212 MiB available memory on the node where the printing process lives
     GPU memory used/free/total (MiB): 1852 / 14428 / 16280
------------------
     ethr =  2.04E-08,  avg # of iterations =  2.0

     total cpu time spent up to now is      263.1 secs

     total energy              =    -342.05254923 Ry
     estimated scf accuracy    <       0.00111373 Ry

     total magnetization       =     6.46 Bohr mag/cell
     absolute magnetization    =     6.52 Bohr mag/cell
[tb_dev] Currently allocated     4.10E+00 Mbytes, locked:    0 /   9
[tb_pin] Currently allocated     0.00E+00 Mbytes, locked:    0 /   0

     iteration # 50     ecut=    60.00 Ry     beta= 0.40
     Davidson diagonalization with overlap

---- Real-time Memory Report at c_bands before calling an iterative solver
          1705 MiB given to the printing process from OS
          1486 MiB allocation reported by mallinfo(arena+hblkhd)
         58212 MiB available memory on the node where the printing process lives
     GPU memory used/free/total (MiB): 1852 / 14428 / 16280
------------------
     ethr =  2.04E-08,  avg # of iterations =  1.0

     total cpu time spent up to now is      267.6 secs

     total energy              =    -342.05261023 Ry
     estimated scf accuracy    <       0.00112424 Ry

     total magnetization       =     6.46 Bohr mag/cell
     absolute magnetization    =     6.52 Bohr mag/cell
[tb_dev] Currently allocated     4.10E+00 Mbytes, locked:    0 /   9
[tb_pin] Currently allocated     0.00E+00 Mbytes, locked:    0 /   0

     iteration # 51     ecut=    60.00 Ry     beta= 0.40
     Davidson diagonalization with overlap

---- Real-time Memory Report at c_bands before calling an iterative solver
          1705 MiB given to the printing process from OS
          1486 MiB allocation reported by mallinfo(arena+hblkhd)
         58185 MiB available memory on the node where the printing process lives
     GPU memory used/free/total (MiB): 1852 / 14428 / 16280
------------------
     ethr =  2.04E-08,  avg # of iterations =  3.0

     total cpu time spent up to now is      274.4 secs

     total energy              =    -342.05271278 Ry
     estimated scf accuracy    <       0.00055657 Ry

     total magnetization       =     6.36 Bohr mag/cell
     absolute magnetization    =     6.42 Bohr mag/cell
[tb_dev] Currently allocated     4.10E+00 Mbytes, locked:    0 /   9
[tb_pin] Currently allocated     0.00E+00 Mbytes, locked:    0 /   0

     iteration # 52     ecut=    60.00 Ry     beta= 0.40
     Davidson diagonalization with overlap

---- Real-time Memory Report at c_bands before calling an iterative solver
          1705 MiB given to the printing process from OS
          1486 MiB allocation reported by mallinfo(arena+hblkhd)
         58191 MiB available memory on the node where the printing process lives
     GPU memory used/free/total (MiB): 1852 / 14428 / 16280
------------------
     ethr =  2.04E-08,  avg # of iterations =  1.6

     total cpu time spent up to now is      279.2 secs

     total energy              =    -342.05264028 Ry
     estimated scf accuracy    <       0.00049542 Ry

     total magnetization       =     6.35 Bohr mag/cell
     absolute magnetization    =     6.40 Bohr mag/cell
[tb_dev] Currently allocated     4.10E+00 Mbytes, locked:    0 /   9
[tb_pin] Currently allocated     0.00E+00 Mbytes, locked:    0 /   0

     iteration # 53     ecut=    60.00 Ry     beta= 0.40
     Davidson diagonalization with overlap

---- Real-time Memory Report at c_bands before calling an iterative solver
          1705 MiB given to the printing process from OS
          1486 MiB allocation reported by mallinfo(arena+hblkhd)
         58196 MiB available memory on the node where the printing process lives
     GPU memory used/free/total (MiB): 1852 / 14428 / 16280
------------------
     ethr =  2.04E-08,  avg # of iterations =  3.4

     total cpu time spent up to now is      286.2 secs

     total energy              =    -342.05275690 Ry
     estimated scf accuracy    <       0.00010939 Ry

     total magnetization       =     6.19 Bohr mag/cell
     absolute magnetization    =     6.24 Bohr mag/cell
[tb_dev] Currently allocated     4.10E+00 Mbytes, locked:    0 /   9
[tb_pin] Currently allocated     0.00E+00 Mbytes, locked:    0 /   0

     iteration # 54     ecut=    60.00 Ry     beta= 0.40
     Davidson diagonalization with overlap

---- Real-time Memory Report at c_bands before calling an iterative solver
          1705 MiB given to the printing process from OS
          1486 MiB allocation reported by mallinfo(arena+hblkhd)
         58199 MiB available memory on the node where the printing process lives
     GPU memory used/free/total (MiB): 1852 / 14428 / 16280
------------------
     ethr =  2.04E-08,  avg # of iterations =  3.0

     total cpu time spent up to now is      293.0 secs

     total energy              =    -342.05288385 Ry
     estimated scf accuracy    <       0.00002448 Ry

     total magnetization       =     6.06 Bohr mag/cell
     absolute magnetization    =     6.12 Bohr mag/cell
[tb_dev] Currently allocated     4.10E+00 Mbytes, locked:    0 /   9
[tb_pin] Currently allocated     0.00E+00 Mbytes, locked:    0 /   0

     iteration # 55     ecut=    60.00 Ry     beta= 0.40
     Davidson diagonalization with overlap

---- Real-time Memory Report at c_bands before calling an iterative solver
          1705 MiB given to the printing process from OS
          1486 MiB allocation reported by mallinfo(arena+hblkhd)
         58203 MiB available memory on the node where the printing process lives
     GPU memory used/free/total (MiB): 1852 / 14428 / 16280
------------------
     ethr =  2.04E-08,  avg # of iterations =  2.0

     total cpu time spent up to now is      298.8 secs

     total energy              =    -342.05289890 Ry
     estimated scf accuracy    <       0.00001804 Ry

     total magnetization       =     6.02 Bohr mag/cell
     absolute magnetization    =     6.08 Bohr mag/cell
[tb_dev] Currently allocated     4.10E+00 Mbytes, locked:    0 /   9
[tb_pin] Currently allocated     0.00E+00 Mbytes, locked:    0 /   0

     iteration # 56     ecut=    60.00 Ry     beta= 0.40
     Davidson diagonalization with overlap

---- Real-time Memory Report at c_bands before calling an iterative solver
          1705 MiB given to the printing process from OS
          1486 MiB allocation reported by mallinfo(arena+hblkhd)
         58204 MiB available memory on the node where the printing process lives
     GPU memory used/free/total (MiB): 1852 / 14428 / 16280
------------------
     ethr =  2.04E-08,  avg # of iterations =  2.0

     total cpu time spent up to now is      303.9 secs

     total energy              =    -342.05290247 Ry
     estimated scf accuracy    <       0.00001655 Ry

     total magnetization       =     6.00 Bohr mag/cell
     absolute magnetization    =     6.06 Bohr mag/cell
[tb_dev] Currently allocated     4.10E+00 Mbytes, locked:    0 /   9
[tb_pin] Currently allocated     0.00E+00 Mbytes, locked:    0 /   0

     iteration # 57     ecut=    60.00 Ry     beta= 0.40
     Davidson diagonalization with overlap

---- Real-time Memory Report at c_bands before calling an iterative solver
          1705 MiB given to the printing process from OS
          1486 MiB allocation reported by mallinfo(arena+hblkhd)
         58205 MiB available memory on the node where the printing process lives
     GPU memory used/free/total (MiB): 1852 / 14428 / 16280
------------------
     ethr =  2.04E-08,  avg # of iterations =  2.0

     total cpu time spent up to now is      309.2 secs

     total energy              =    -342.05286247 Ry
     estimated scf accuracy    <       0.00001660 Ry

     total magnetization       =     5.97 Bohr mag/cell
     absolute magnetization    =     6.04 Bohr mag/cell
[tb_dev] Currently allocated     4.10E+00 Mbytes, locked:    0 /   9
[tb_pin] Currently allocated     0.00E+00 Mbytes, locked:    0 /   0

     iteration # 58     ecut=    60.00 Ry     beta= 0.40
     Davidson diagonalization with overlap

[...]

     total energy              =    -342.05282829 Ry
     estimated scf accuracy    <       0.00003169 Ry

     total magnetization       =     6.06 Bohr mag/cell
     absolute magnetization    =     6.12 Bohr mag/cell
[tb_dev] Currently allocated     4.10E+00 Mbytes, locked:    0 /   9
[tb_pin] Currently allocated     0.00E+00 Mbytes, locked:    0 /   0

     iteration # 65     ecut=    60.00 Ry     beta= 0.40
     Davidson diagonalization with overlap

---- Real-time Memory Report at c_bands before calling an iterative solver
          1705 MiB given to the printing process from OS
          1486 MiB allocation reported by mallinfo(arena+hblkhd)
         58208 MiB available memory on the node where the printing process lives
     GPU memory used/free/total (MiB): 1852 / 14428 / 16280
------------------
     ethr =  2.04E-08,  avg # of iterations =  2.0

     total cpu time spent up to now is      363.0 secs

     total energy              =    -342.05278740 Ry
     estimated scf accuracy    <       0.00006357 Ry

     total magnetization       =     6.13 Bohr mag/cell
     absolute magnetization    =     6.18 Bohr mag/cell
[tb_dev] Currently allocated     4.10E+00 Mbytes, locked:    0 /   9
[tb_pin] Currently allocated     0.00E+00 Mbytes, locked:    0 /   0

     iteration # 66     ecut=    60.00 Ry     beta= 0.40
     Davidson diagonalization with overlap

---- Real-time Memory Report at c_bands before calling an iterative solver
          1705 MiB given to the printing process from OS
          1486 MiB allocation reported by mallinfo(arena+hblkhd)
         58208 MiB available memory on the node where the printing process lives
     GPU memory used/free/total (MiB): 1852 / 14428 / 16280
------------------
     ethr =  2.04E-08,  avg # of iterations =  3.0

     total cpu time spent up to now is      369.7 secs

     total energy              =    -342.05260287 Ry
     estimated scf accuracy    <       0.00013520 Ry

     total magnetization       =     6.20 Bohr mag/cell
     absolute magnetization    =     6.25 Bohr mag/cell
[tb_dev] Currently allocated     4.10E+00 Mbytes, locked:    0 /   9
[tb_pin] Currently allocated     0.00E+00 Mbytes, locked:    0 /   0

     iteration # 67     ecut=    60.00 Ry     beta= 0.40
     Davidson diagonalization with overlap

---- Real-time Memory Report at c_bands before calling an iterative solver
          1705 MiB given to the printing process from OS
          1486 MiB allocation reported by mallinfo(arena+hblkhd)
         58209 MiB available memory on the node where the printing process lives
     GPU memory used/free/total (MiB): 1852 / 14428 / 16280
------------------
     ethr =  2.04E-08,  avg # of iterations =  3.0

     total cpu time spent up to now is      376.6 secs

     total energy              =    -342.05275762 Ry
     estimated scf accuracy    <       0.00041699 Ry

     total magnetization       =     6.33 Bohr mag/cell
     absolute magnetization    =     6.38 Bohr mag/cell
[tb_dev] Currently allocated     4.10E+00 Mbytes, locked:    0 /   9
[tb_pin] Currently allocated     0.00E+00 Mbytes, locked:    0 /   0

     iteration # 68     ecut=    60.00 Ry     beta= 0.40
     Davidson diagonalization with overlap

---- Real-time Memory Report at c_bands before calling an iterative solver
          1705 MiB given to the printing process from OS
          1486 MiB allocation reported by mallinfo(arena+hblkhd)
         58208 MiB available memory on the node where the printing process lives
     GPU memory used/free/total (MiB): 1852 / 14428 / 16280
------------------
     ethr =  2.04E-08,  avg # of iterations =  2.0

     total cpu time spent up to now is      382.2 secs

     total energy              =    -342.05274846 Ry
     estimated scf accuracy    <       0.00029677 Ry

     total magnetization       =     6.29 Bohr mag/cell
     absolute magnetization    =     6.34 Bohr mag/cell
[tb_dev] Currently allocated     4.10E+00 Mbytes, locked:    0 /   9
[tb_pin] Currently allocated     0.00E+00 Mbytes, locked:    0 /   0

     iteration # 69     ecut=    60.00 Ry     beta= 0.40
     Davidson diagonalization with overlap

---- Real-time Memory Report at c_bands before calling an iterative solver
          1705 MiB given to the printing process from OS
          1486 MiB allocation reported by mallinfo(arena+hblkhd)
         58210 MiB available memory on the node where the printing process lives
     GPU memory used/free/total (MiB): 1852 / 14428 / 16280
------------------
     ethr =  2.04E-08,  avg # of iterations =  3.0

     total cpu time spent up to now is      389.0 secs

     total energy              =    -342.05281400 Ry
     estimated scf accuracy    <       0.00010626 Ry

     total magnetization       =     6.18 Bohr mag/cell
     absolute magnetization    =     6.23 Bohr mag/cell
[tb_dev] Currently allocated     4.10E+00 Mbytes, locked:    0 /   9
[tb_pin] Currently allocated     0.00E+00 Mbytes, locked:    0 /   0

     iteration # 70     ecut=    60.00 Ry     beta= 0.40
     Davidson diagonalization with overlap

---- Real-time Memory Report at c_bands before calling an iterative solver
          1705 MiB given to the printing process from OS
          1486 MiB allocation reported by mallinfo(arena+hblkhd)
         58210 MiB available memory on the node where the printing process lives
     GPU memory used/free/total (MiB): 1852 / 14428 / 16280
------------------
     ethr =  2.04E-08,  avg # of iterations =  2.0

     total cpu time spent up to now is      394.4 secs

     total energy              =    -342.05270707 Ry
     estimated scf accuracy    <       0.00014968 Ry

     total magnetization       =     6.21 Bohr mag/cell
     absolute magnetization    =     6.27 Bohr mag/cell
[tb_dev] Currently allocated     4.10E+00 Mbytes, locked:    0 /   9
[tb_pin] Currently allocated     0.00E+00 Mbytes, locked:    0 /   0

     iteration # 71     ecut=    60.00 Ry     beta= 0.40
     Davidson diagonalization with overlap

---- Real-time Memory Report at c_bands before calling an iterative solver
          1705 MiB given to the printing process from OS
          1486 MiB allocation reported by mallinfo(arena+hblkhd)
         58211 MiB available memory on the node where the printing process lives
     GPU memory used/free/total (MiB): 1852 / 14428 / 16280
------------------
     ethr =  2.04E-08,  avg # of iterations =  3.0

     total cpu time spent up to now is      401.1 secs

     total energy              =    -342.05194984 Ry
     estimated scf accuracy    <       0.00031846 Ry

     total magnetization       =     6.29 Bohr mag/cell
     absolute magnetization    =     6.35 Bohr mag/cell
[tb_dev] Currently allocated     4.10E+00 Mbytes, locked:    0 /   9
[tb_pin] Currently allocated     0.00E+00 Mbytes, locked:    0 /   0

     iteration # 72     ecut=    60.00 Ry     beta= 0.40
     Davidson diagonalization with overlap

---- Real-time Memory Report at c_bands before calling an iterative solver
          1705 MiB given to the printing process from OS
          1486 MiB allocation reported by mallinfo(arena+hblkhd)
         58210 MiB available memory on the node where the printing process lives
     GPU memory used/free/total (MiB): 1852 / 14428 / 16280
------------------
     ethr =  2.04E-08,  avg # of iterations =  5.0

     total cpu time spent up to now is      410.1 secs

     total energy              =    -342.05277555 Ry
     estimated scf accuracy    <       0.00002122 Ry

     total magnetization       =     5.94 Bohr mag/cell
     absolute magnetization    =     6.02 Bohr mag/cell
[tb_dev] Currently allocated     4.10E+00 Mbytes, locked:    0 /   9
[tb_pin] Currently allocated     0.00E+00 Mbytes, locked:    0 /   0

     iteration # 73     ecut=    60.00 Ry     beta= 0.40
     Davidson diagonalization with overlap

---- Real-time Memory Report at c_bands before calling an iterative solver
          1705 MiB given to the printing process from OS
          1486 MiB allocation reported by mallinfo(arena+hblkhd)
         58211 MiB available memory on the node where the printing process lives
     GPU memory used/free/total (MiB): 1852 / 14428 / 16280
------------------
     ethr =  2.04E-08,  avg # of iterations =  3.0

     total cpu time spent up to now is      417.0 secs

     total energy              =    -342.05292277 Ry
     estimated scf accuracy    <       0.00010550 Ry

     total magnetization       =     5.79 Bohr mag/cell
     absolute magnetization    =     5.96 Bohr mag/cell
[tb_dev] Currently allocated     4.10E+00 Mbytes, locked:    0 /   9
[tb_pin] Currently allocated     0.00E+00 Mbytes, locked:    0 /   0

     iteration # 74     ecut=    60.00 Ry     beta= 0.40
     Davidson diagonalization with overlap

---- Real-time Memory Report at c_bands before calling an iterative solver
          1705 MiB given to the printing process from OS
          1486 MiB allocation reported by mallinfo(arena+hblkhd)
         58210 MiB available memory on the node where the printing process lives
     GPU memory used/free/total (MiB): 1852 / 14428 / 16280
------------------
     ethr =  2.04E-08,  avg # of iterations =  3.0

     total cpu time spent up to now is      423.7 secs

     total energy              =    -342.05193667 Ry
     estimated scf accuracy    <       0.00036689 Ry

     total magnetization       =     5.68 Bohr mag/cell
     absolute magnetization    =     5.94 Bohr mag/cell
[tb_dev] Currently allocated     4.10E+00 Mbytes, locked:    0 /   9
[tb_pin] Currently allocated     0.00E+00 Mbytes, locked:    0 /   0

     iteration # 75     ecut=    60.00 Ry     beta= 0.40
     Davidson diagonalization with overlap

---- Real-time Memory Report at c_bands before calling an iterative solver
          1705 MiB given to the printing process from OS
          1486 MiB allocation reported by mallinfo(arena+hblkhd)
         58210 MiB available memory on the node where the printing process lives
     GPU memory used/free/total (MiB): 1852 / 14428 / 16280
------------------
     ethr =  2.04E-08,  avg # of iterations =  4.3

     total cpu time spent up to now is      432.0 secs

     total energy              =    -342.05278939 Ry
     estimated scf accuracy    <       0.00002452 Ry

     total magnetization       =     6.01 Bohr mag/cell
     absolute magnetization    =     6.07 Bohr mag/cell
[tb_dev] Currently allocated     4.10E+00 Mbytes, locked:    0 /   9
[tb_pin] Currently allocated     0.00E+00 Mbytes, locked:    0 /   0

     iteration # 76     ecut=    60.00 Ry     beta= 0.40
     Davidson diagonalization with overlap

---- Real-time Memory Report at c_bands before calling an iterative solver
          1705 MiB given to the printing process from OS
          1486 MiB allocation reported by mallinfo(arena+hblkhd)
         58211 MiB available memory on the node where the printing process lives
     GPU memory used/free/total (MiB): 1852 / 14428 / 16280
------------------
     ethr =  2.04E-08,  avg # of iterations =  3.0

     total cpu time spent up to now is      438.7 secs

     total energy              =    -342.05286996 Ry
     estimated scf accuracy    <       0.00005188 Ry

     total magnetization       =     6.11 Bohr mag/cell
     absolute magnetization    =     6.16 Bohr mag/cell
[tb_dev] Currently allocated     4.10E+00 Mbytes, locked:    0 /   9
[tb_pin] Currently allocated     0.00E+00 Mbytes, locked:    0 /   0

     iteration # 77     ecut=    60.00 Ry     beta= 0.40
     Davidson diagonalization with overlap

---- Real-time Memory Report at c_bands before calling an iterative solver
          1705 MiB given to the printing process from OS
          1486 MiB allocation reported by mallinfo(arena+hblkhd)
         58212 MiB available memory on the node where the printing process lives
     GPU memory used/free/total (MiB): 1852 / 14428 / 16280
------------------
     ethr =  2.04E-08,  avg # of iterations =  1.0

     total cpu time spent up to now is      443.2 secs

     total energy              =    -342.05284483 Ry
     estimated scf accuracy    <       0.00005706 Ry

     total magnetization       =     6.12 Bohr mag/cell
     absolute magnetization    =     6.17 Bohr mag/cell
[tb_dev] Currently allocated     4.10E+00 Mbytes, locked:    0 /   9
[tb_pin] Currently allocated     0.00E+00 Mbytes, locked:    0 /   0

     iteration # 78     ecut=    60.00 Ry     beta= 0.40
     Davidson diagonalization with overlap

---- Real-time Memory Report at c_bands before calling an iterative solver
          1705 MiB given to the printing process from OS
          1486 MiB allocation reported by mallinfo(arena+hblkhd)
         58210 MiB available memory on the node where the printing process lives
     GPU memory used/free/total (MiB): 1852 / 14428 / 16280
------------------
     ethr =  2.04E-08,  avg # of iterations =  2.0

     total cpu time spent up to now is      448.8 secs

     total energy              =    -342.05285681 Ry
     estimated scf accuracy    <       0.00008315 Ry

     total magnetization       =     6.15 Bohr mag/cell
     absolute magnetization    =     6.20 Bohr mag/cell
[tb_dev] Currently allocated     4.10E+00 Mbytes, locked:    0 /   9
[tb_pin] Currently allocated     0.00E+00 Mbytes, locked:    0 /   0

     iteration # 79     ecut=    60.00 Ry     beta= 0.40
     Davidson diagonalization with overlap

---- Real-time Memory Report at c_bands before calling an iterative solver
          1705 MiB given to the printing process from OS
          1486 MiB allocation reported by mallinfo(arena+hblkhd)
         58211 MiB available memory on the node where the printing process lives
     GPU memory used/free/total (MiB): 1852 / 14428 / 16280
------------------
     ethr =  2.04E-08,  avg # of iterations =  1.0

     total cpu time spent up to now is      453.3 secs

     total energy              =    -342.05285757 Ry
     estimated scf accuracy    <       0.00007973 Ry

     total magnetization       =     6.15 Bohr mag/cell
     absolute magnetization    =     6.20 Bohr mag/cell
[tb_dev] Currently allocated     4.10E+00 Mbytes, locked:    0 /   9
[tb_pin] Currently allocated     0.00E+00 Mbytes, locked:    0 /   0

     iteration # 80     ecut=    60.00 Ry     beta= 0.40
     Davidson diagonalization with overlap

---- Real-time Memory Report at c_bands before calling an iterative solver
          1705 MiB given to the printing process from OS
          1486 MiB allocation reported by mallinfo(arena+hblkhd)
         58212 MiB available memory on the node where the printing process lives
     GPU memory used/free/total (MiB): 1852 / 14428 / 16280
------------------
     ethr =  2.04E-08,  avg # of iterations =  1.0

     total cpu time spent up to now is      457.8 secs

     total energy              =    -342.05281662 Ry
     estimated scf accuracy    <       0.00007956 Ry

     total magnetization       =     6.15 Bohr mag/cell
     absolute magnetization    =     6.20 Bohr mag/cell

     End of self-consistent calculation

     convergence NOT achieved after  80 iterations: stopping

     Writing config to output data dir ./out/aiida.save/
 
     init_run     :     12.79s CPU      5.35s WALL (       1 calls)
     electrons    :    626.87s CPU    451.94s WALL (       1 calls)

     Called by init_run:
     wfcinit      :      2.61s CPU      3.57s WALL (       1 calls)
                                        3.57s GPU  (       1 calls)
     wfcinit:atom :      0.05s CPU      0.07s WALL (     176 calls)
                                        0.06s GPU  (     176 calls)
     wfcinit:wfcr :      1.55s CPU      2.12s WALL (     176 calls)
                                        2.12s GPU  (     176 calls)
     potinit      :      1.00s CPU      0.09s WALL (       1 calls)
     hinit0       :      6.85s CPU      1.02s WALL (       1 calls)

     Called by electrons:
     c_bands      :    459.56s CPU    374.69s WALL (      80 calls)
     sum_band     :     59.93s CPU     67.13s WALL (      80 calls)
     v_of_rho     :     27.22s CPU      2.46s WALL (      81 calls)
     v_h          :      3.91s CPU      0.34s WALL (      81 calls)
     v_xc         :     23.30s CPU      2.12s WALL (      81 calls)
     newd         :     39.05s CPU      3.84s WALL (      81 calls)
                                        3.84s GPU  (      81 calls)
     mix_rho      :     30.99s CPU      3.03s WALL (      80 calls)

     Called by c_bands:
     init_us_2    :     32.13s CPU     29.83s WALL (   28336 calls)
     init_us_2:gp :     31.56s CPU     29.36s WALL (   28336 calls)
     cegterg      :    385.70s CPU    318.70s WALL (   14080 calls)

     Called by sum_band:
     sum_band:wei :      0.48s CPU      0.49s WALL (      80 calls)
                                        0.49s GPU  (      80 calls)
     sum_band:loo :     54.94s CPU     62.01s WALL (      80 calls)
                                       62.01s GPU  (      80 calls)
     sum_band:buf :     14.94s CPU     16.65s WALL (   14080 calls)
                                       16.56s GPU  (   14080 calls)
     sum_band:ini :     12.57s CPU     14.50s WALL (   14080 calls)
                                       14.43s GPU  (   14080 calls)
     sum_band:cal :      0.36s CPU      2.55s WALL (   14080 calls)
                                        2.37s GPU  (   14080 calls)
     sum_band:bec :      3.16s CPU      3.78s WALL (   14080 calls)
                                        3.69s GPU  (   14080 calls)
     addusdens    :      2.97s CPU      3.09s WALL (      80 calls)
                                        3.09s GPU  (      80 calls)
     addusd:skk   :      0.03s CPU      0.03s WALL (     240 calls)
                                        0.03s GPU  (     240 calls)

     Called by *egterg:
     cdiaghg      :    137.89s CPU    119.96s WALL (   43823 calls)
                                      119.66s GPU  (   43823 calls)
     cegterg:over :      9.57s CPU      7.88s WALL (   29743 calls)
     cegterg:upda :     15.20s CPU     12.40s WALL (   29743 calls)
     cegterg:last :      6.49s CPU      5.48s WALL (   25706 calls)
     h_psi        :    184.48s CPU    148.70s WALL (   43999 calls)
                                      148.31s GPU  (   43999 calls)
     s_psi        :      6.73s CPU     10.51s WALL (   43999 calls)
                                        9.77s GPU  (   43999 calls)
     g_psi        :      0.27s CPU      1.11s WALL (   29743 calls)
                                        0.92s GPU  (   29743 calls)

     Called by h_psi:
     h_psi:calbec :      1.80s CPU      7.50s WALL (   43999 calls)
                                        7.22s GPU  (   43999 calls)
     vloc_psi     :    153.63s CPU    124.41s WALL (   43999 calls)
                                      124.13s GPU  (   43999 calls)
     add_vuspsi   :     11.68s CPU     13.49s WALL (   43999 calls)
                                       13.20s GPU  (   43999 calls)

     General routines
     calbec       :      1.54s CPU      1.30s WALL (   58079 calls)
     fft          :      3.00s CPU      0.50s WALL (    2023 calls)
                                        0.38s GPU  (    1861 calls)
     ffts         :      0.42s CPU      0.07s WALL (     322 calls)
                                        0.01s GPU  (     160 calls)
     fftw         :      6.24s CPU     91.86s WALL (  257484 calls)
                                       90.43s GPU  (  257484 calls)
     interpolate  :      4.21s CPU      0.38s WALL (     162 calls)
     davcio       :      1.05s CPU      0.51s WALL (     194 calls)
 
     Parallel routines
 
     PWSCF        :  10m42.55s CPU   7m38.45s WALL

 
   This run was terminated on:  17:35:22  22Oct2023            

=------------------------------------------------------------------------------=
   JOB DONE.
=------------------------------------------------------------------------------=
