
     Program PWSCF v.7.2 starts on 28Nov2023 at 22:13:12 
        Git branch: develop
        Last git commit: 9055681be6fc8200e6fffe76ed5fda34c2696339
        Last git commit date: Wed Nov 8 16:29:39 2023 +0000
        Last git commit subject: Merge branch 'calbec_fix' into 'develop'

     This program is part of the open-source Quantum ESPRESSO suite
     for quantum simulation of materials; please cite
         "P. Giannozzi et al., J. Phys.:Condens. Matter 21 395502 (2009);
         "P. Giannozzi et al., J. Phys.:Condens. Matter 29 465901 (2017);
         "P. Giannozzi et al., J. Chem. Phys. 152 154105 (2020);
          URL http://www.quantum-espresso.org", 
     in publications or presentations arising from this work. More details at
     http://www.quantum-espresso.org/quote

     Parallel version (MPI), running on    56 processors

     MPI processes distributed on     1 nodes
     488593 MiB available memory on the printing compute node when the environment starts

     Reading input from aiida.in

     Current dimensions of program PWSCF are:
     Max number of different atomic species (ntypx) = 10
     Max number of k-points (npk) =  40000
     Max angular momentum in pseudopotentials (lmaxx) =  4
     Message from routine setup:
     using ibrav=0 with symmetry is DISCOURAGED, use correct ibrav instead

     K-points division:     npool     =       8
     R & G space division:  proc/nbgrp/npool/nimage =       7
     Subspace diagonalization in iterative solution of the eigenvalue problem:
     a serial algorithm will be used


     Parallelization info
     --------------------
     sticks:   dense  smooth     PW     G-vecs:    dense   smooth      PW
     Min         913     301     85                48196     9252    1405
     Max         913     301     85                48198     9253    1407
     Sum        6391    2107    595               337381    64767    9841

     Using Slab Decomposition



     bravais-lattice index     =            0
     lattice parameter (alat)  =      10.9037  a.u.
     unit-cell volume          =     916.6575 (a.u.)^3
     number of atoms/cell      =            8
     number of atomic types    =            3
     number of electrons       =        69.00
     number of Kohn-Sham states=           42
     kinetic-energy cutoff     =      65.0000  Ry
     charge density cutoff     =     780.0000  Ry
     scf convergence threshold =      1.6E-09
     mixing beta               =       0.4000
     number of iterations used =            8  plain     mixing
     Exchange-correlation= SLA  PW   PSX  PSC
                           (   1   4  10   8   0   0   0)

     celldm(1)=  10.903703  celldm(2)=   0.000000  celldm(3)=   0.000000
     celldm(4)=   0.000000  celldm(5)=   0.000000  celldm(6)=   0.000000

     crystal axes: (cart. coord. in units of alat)
               a(1) = (   0.000000   0.707107   0.707107 )  
               a(2) = (   0.707107   0.000000   0.707107 )  
               a(3) = (   0.707107   0.707107   0.000000 )  

     reciprocal axes: (cart. coord. in units 2 pi/alat)
               b(1) = ( -0.707107  0.707107  0.707107 )  
               b(2) = (  0.707107 -0.707107  0.707107 )  
               b(3) = (  0.707107  0.707107 -0.707107 )  


     PseudoPot. # 1 for F  read from file:
     ./pseudo/f_pbesol_v1.4.uspp.F.UPF
     MD5 check sum: d2815ecb49b17b99c5724ffd2f9bbd8d
     Pseudo is Ultrasoft, Zval =  7.0
     Generated by new atomic code, or converted to UPF format
     Using radial grid of  799 points,  4 beta functions with: 
                l(1) =   0
                l(2) =   0
                l(3) =   1
                l(4) =   1
     Q(r) pseudized with  8 coefficients,  rinner =    0.950   0.950   0.950


     PseudoPot. # 2 for Hf read from file:
     ./pseudo/Hf-sp.oncvpsp.upf
     MD5 check sum: 3619c98de2ee908b1d969add25be4863
     Pseudo is Norm-conserving + core correction, Zval = 12.0
     Generated using ONCVPSP code by D. R. Hamann
     Using radial grid of 1656 points,  8 beta functions with: 
                l(1) =   0
                l(2) =   0
                l(3) =   1
                l(4) =   1
                l(5) =   2
                l(6) =   2
                l(7) =   3
                l(8) =   3

     PseudoPot. # 3 for Mn read from file:
     ./pseudo/mn_pbesol_v1.5.uspp.F.UPF
     MD5 check sum: 0716d5f563e6e95a34f9080f4c78c109
     Pseudo is Ultrasoft + core correction, Zval = 15.0
     Generated by new atomic code, or converted to UPF format
     Using radial grid of  859 points,  6 beta functions with: 
                l(1) =   0
                l(2) =   0
                l(3) =   1
                l(4) =   1
                l(5) =   2
                l(6) =   2
     Q(r) pseudized with  8 coefficients,  rinner =    0.950   0.950   0.950
                                                       0.950   0.950

     atomic species   valence    mass     pseudopotential
     F                 7.00    18.99840     F ( 1.00)
     Hf               12.00   178.49000     Hf( 1.00)
     Mn               15.00    54.93805     Mn( 1.00)

     Starting magnetic structure 
     atomic species   magnetization
     F               0.100
     Hf              0.417
     Mn              0.333

     48 Sym. Ops., with inversion, found


                                    s                        frac. trans.

      isym =  1     identity                                     

 cryst.   s( 1) = (     1          0          0      )
                  (     0          1          0      )
                  (     0          0          1      )

 cart.    s( 1) = (  1.0000000 -0.0000000  0.0000000 )
                  ( -0.0000000  1.0000000  0.0000000 )
                  ( -0.0000000  0.0000000  1.0000000 )


      isym =  2     180 deg rotation - cart. axis [0,0,1]        

 cryst.   s( 2) = (     0          1         -1      )
                  (     1          0         -1      )
                  (     0          0         -1      )

 cart.    s( 2) = ( -1.0000000  0.0000000  0.0000000 )
                  (  0.0000000 -1.0000000  0.0000000 )
                  (  0.0000000 -0.0000000  1.0000000 )


      isym =  3     180 deg rotation - cart. axis [0,1,0]        

 cryst.   s( 3) = (     0         -1          1      )
                  (     0         -1          0      )
                  (     1         -1          0      )

 cart.    s( 3) = ( -1.0000000 -0.0000000 -0.0000000 )
                  (  0.0000000  1.0000000 -0.0000000 )
                  (  0.0000000  0.0000000 -1.0000000 )


      isym =  4     180 deg rotation - cart. axis [1,0,0]        

 cryst.   s( 4) = (    -1          0          0      )
                  (    -1          0          1      )
                  (    -1          1          0      )

 cart.    s( 4) = (  1.0000000  0.0000000 -0.0000000 )
                  ( -0.0000000 -1.0000000 -0.0000000 )
                  ( -0.0000000 -0.0000000 -1.0000000 )


      isym =  5     180 deg rotation - cart. axis [1,1,0]        

 cryst.   s( 5) = (    -1          0          1      )
                  (     0         -1          1      )
                  (     0          0          1      )

 cart.    s( 5) = ( -0.0000000  1.0000000 -0.0000000 )
                  (  1.0000000 -0.0000000 -0.0000000 )
                  (  0.0000000 -0.0000000 -1.0000000 )


      isym =  6     180 deg rotation - cart. axis [1,-1,0]       

 cryst.   s( 6) = (     0         -1          0      )
                  (    -1          0          0      )
                  (     0          0         -1      )

 cart.    s( 6) = (  0.0000000 -1.0000000 -0.0000000 )
                  ( -1.0000000  0.0000000 -0.0000000 )
                  ( -0.0000000  0.0000000 -1.0000000 )


      isym =  7      90 deg rotation - cart. axis [0,0,-1]       

 cryst.   s( 7) = (     0          1          0      )
                  (     0          1         -1      )
                  (    -1          1          0      )

 cart.    s( 7) = (  0.0000000  1.0000000  0.0000000 )
                  ( -1.0000000 -0.0000000  0.0000000 )
                  ( -0.0000000 -0.0000000  1.0000000 )


      isym =  8      90 deg rotation - cart. axis [0,0,1]        

 cryst.   s( 8) = (     1          0         -1      )
                  (     1          0          0      )
                  (     1         -1          0      )

 cart.    s( 8) = ( -0.0000000 -1.0000000  0.0000000 )
                  (  1.0000000  0.0000000  0.0000000 )
                  (  0.0000000  0.0000000  1.0000000 )


      isym =  9     180 deg rotation - cart. axis [1,0,1]        

 cryst.   s( 9) = (    -1          1          0      )
                  (     0          1          0      )
                  (     0          1         -1      )

 cart.    s( 9) = (  0.0000000  0.0000000  1.0000000 )
                  (  0.0000000 -1.0000000 -0.0000000 )
                  (  1.0000000 -0.0000000 -0.0000000 )


      isym = 10     180 deg rotation - cart. axis [-1,0,1]       

 cryst.   s(10) = (     0          0         -1      )
                  (     0         -1          0      )
                  (    -1          0          0      )

 cart.    s(10) = ( -0.0000000  0.0000000 -1.0000000 )
                  ( -0.0000000 -1.0000000  0.0000000 )
                  ( -1.0000000 -0.0000000  0.0000000 )


      isym = 11      90 deg rotation - cart. axis [0,1,0]        

 cryst.   s(11) = (     0          0          1      )
                  (    -1          0          1      )
                  (     0         -1          1      )

 cart.    s(11) = ( -0.0000000 -0.0000000  1.0000000 )
                  ( -0.0000000  1.0000000 -0.0000000 )
                  ( -1.0000000  0.0000000 -0.0000000 )


      isym = 12      90 deg rotation - cart. axis [0,-1,0]       

 cryst.   s(12) = (     1         -1          0      )
                  (     1          0         -1      )
                  (     1          0          0      )

 cart.    s(12) = (  0.0000000 -0.0000000 -1.0000000 )
                  (  0.0000000  1.0000000  0.0000000 )
                  (  1.0000000  0.0000000  0.0000000 )


      isym = 13     180 deg rotation - cart. axis [0,1,1]        

 cryst.   s(13) = (     1          0          0      )
                  (     1         -1          0      )
                  (     1          0         -1      )

 cart.    s(13) = ( -1.0000000  0.0000000 -0.0000000 )
                  (  0.0000000  0.0000000  1.0000000 )
                  (  0.0000000  1.0000000  0.0000000 )


      isym = 14     180 deg rotation - cart. axis [0,1,-1]       

 cryst.   s(14) = (    -1          0          0      )
                  (     0          0         -1      )
                  (     0         -1          0      )

 cart.    s(14) = ( -1.0000000 -0.0000000  0.0000000 )
                  (  0.0000000 -0.0000000 -1.0000000 )
                  (  0.0000000 -1.0000000 -0.0000000 )


      isym = 15      90 deg rotation - cart. axis [-1,0,0]       

 cryst.   s(15) = (     0         -1          1      )
                  (     0          0          1      )
                  (    -1          0          1      )

 cart.    s(15) = (  1.0000000 -0.0000000 -0.0000000 )
                  ( -0.0000000 -0.0000000  1.0000000 )
                  ( -0.0000000 -1.0000000  0.0000000 )


      isym = 16      90 deg rotation - cart. axis [1,0,0]        

 cryst.   s(16) = (     0          1         -1      )
                  (    -1          1          0      )
                  (     0          1          0      )

 cart.    s(16) = (  1.0000000  0.0000000  0.0000000 )
                  ( -0.0000000  0.0000000 -1.0000000 )
                  ( -0.0000000  1.0000000 -0.0000000 )


      isym = 17     120 deg rotation - cart. axis [-1,-1,-1]     

 cryst.   s(17) = (     0          0          1      )
                  (     1          0          0      )
                  (     0          1          0      )

 cart.    s(17) = (  0.0000000  1.0000000 -0.0000000 )
                  (  0.0000000 -0.0000000  1.0000000 )
                  (  1.0000000 -0.0000000  0.0000000 )


      isym = 18     120 deg rotation - cart. axis [-1,1,1]       

 cryst.   s(18) = (     1         -1          0      )
                  (     0         -1          1      )
                  (     0         -1          0      )

 cart.    s(18) = ( -0.0000000 -1.0000000 -0.0000000 )
                  ( -0.0000000  0.0000000  1.0000000 )
                  ( -1.0000000  0.0000000  0.0000000 )


      isym = 19     120 deg rotation - cart. axis [1,1,-1]       

 cryst.   s(19) = (    -1          1          0      )
                  (    -1          0          0      )
                  (    -1          0          1      )

 cart.    s(19) = ( -0.0000000  1.0000000  0.0000000 )
                  ( -0.0000000 -0.0000000 -1.0000000 )
                  ( -1.0000000 -0.0000000 -0.0000000 )


      isym = 20     120 deg rotation - cart. axis [1,-1,1]       

 cryst.   s(20) = (     0          0         -1      )
                  (     0          1         -1      )
                  (     1          0         -1      )

 cart.    s(20) = (  0.0000000 -1.0000000  0.0000000 )
                  (  0.0000000  0.0000000 -1.0000000 )
                  (  1.0000000  0.0000000 -0.0000000 )


      isym = 21     120 deg rotation - cart. axis [1,1,1]        

 cryst.   s(21) = (     0          1          0      )
                  (     0          0          1      )
                  (     1          0          0      )

 cart.    s(21) = ( -0.0000000  0.0000000  1.0000000 )
                  (  1.0000000  0.0000000 -0.0000000 )
                  (  0.0000000  1.0000000 -0.0000000 )


      isym = 22     120 deg rotation - cart. axis [-1,1,-1]      

 cryst.   s(22) = (    -1          0          1      )
                  (    -1          1          0      )
                  (    -1          0          0      )

 cart.    s(22) = (  0.0000000 -0.0000000  1.0000000 )
                  ( -1.0000000 -0.0000000 -0.0000000 )
                  ( -0.0000000 -1.0000000 -0.0000000 )


      isym = 23     120 deg rotation - cart. axis [1,-1,-1]      

 cryst.   s(23) = (     1          0         -1      )
                  (     0          0         -1      )
                  (     0          1         -1      )

 cart.    s(23) = (  0.0000000  0.0000000 -1.0000000 )
                  ( -1.0000000  0.0000000  0.0000000 )
                  ( -0.0000000  1.0000000  0.0000000 )


      isym = 24     120 deg rotation - cart. axis [-1,-1,1]      

 cryst.   s(24) = (     0         -1          0      )
                  (     1         -1          0      )
                  (     0         -1          1      )

 cart.    s(24) = ( -0.0000000 -0.0000000 -1.0000000 )
                  (  1.0000000 -0.0000000  0.0000000 )
                  (  0.0000000 -1.0000000  0.0000000 )


      isym = 25     inversion                                    

 cryst.   s(25) = (    -1          0          0      )
                  (     0         -1          0      )
                  (     0          0         -1      )

 cart.    s(25) = ( -1.0000000  0.0000000 -0.0000000 )
                  (  0.0000000 -1.0000000 -0.0000000 )
                  (  0.0000000 -0.0000000 -1.0000000 )


      isym = 26     inv. 180 deg rotation - cart. axis [0,0,1]   

 cryst.   s(26) = (     0         -1          1      )
                  (    -1          0          1      )
                  (     0          0          1      )

 cart.    s(26) = (  1.0000000 -0.0000000 -0.0000000 )
                  ( -0.0000000  1.0000000 -0.0000000 )
                  ( -0.0000000  0.0000000 -1.0000000 )


      isym = 27     inv. 180 deg rotation - cart. axis [0,1,0]   

 cryst.   s(27) = (     0          1         -1      )
                  (     0          1          0      )
                  (    -1          1          0      )

 cart.    s(27) = (  1.0000000  0.0000000  0.0000000 )
                  ( -0.0000000 -1.0000000  0.0000000 )
                  ( -0.0000000 -0.0000000  1.0000000 )


      isym = 28     inv. 180 deg rotation - cart. axis [1,0,0]   

 cryst.   s(28) = (     1          0          0      )
                  (     1          0         -1      )
                  (     1         -1          0      )

 cart.    s(28) = ( -1.0000000 -0.0000000  0.0000000 )
                  (  0.0000000  1.0000000  0.0000000 )
                  (  0.0000000  0.0000000  1.0000000 )


      isym = 29     inv. 180 deg rotation - cart. axis [1,1,0]   

 cryst.   s(29) = (     1          0         -1      )
                  (     0          1         -1      )
                  (     0          0         -1      )

 cart.    s(29) = (  0.0000000 -1.0000000  0.0000000 )
                  ( -1.0000000  0.0000000  0.0000000 )
                  ( -0.0000000  0.0000000  1.0000000 )


      isym = 30     inv. 180 deg rotation - cart. axis [1,-1,0]  

 cryst.   s(30) = (     0          1          0      )
                  (     1          0          0      )
                  (     0          0          1      )

 cart.    s(30) = ( -0.0000000  1.0000000  0.0000000 )
                  (  1.0000000 -0.0000000  0.0000000 )
                  (  0.0000000 -0.0000000  1.0000000 )


      isym = 31     inv.  90 deg rotation - cart. axis [0,0,-1]  

 cryst.   s(31) = (     0         -1          0      )
                  (     0         -1          1      )
                  (     1         -1          0      )

 cart.    s(31) = ( -0.0000000 -1.0000000 -0.0000000 )
                  (  1.0000000  0.0000000 -0.0000000 )
                  (  0.0000000  0.0000000 -1.0000000 )


      isym = 32     inv.  90 deg rotation - cart. axis [0,0,1]   

 cryst.   s(32) = (    -1          0          1      )
                  (    -1          0          0      )
                  (    -1          1          0      )

 cart.    s(32) = (  0.0000000  1.0000000 -0.0000000 )
                  ( -1.0000000 -0.0000000 -0.0000000 )
                  ( -0.0000000 -0.0000000 -1.0000000 )


      isym = 33     inv. 180 deg rotation - cart. axis [1,0,1]   

 cryst.   s(33) = (     1         -1          0      )
                  (     0         -1          0      )
                  (     0         -1          1      )

 cart.    s(33) = ( -0.0000000 -0.0000000 -1.0000000 )
                  ( -0.0000000  1.0000000  0.0000000 )
                  ( -1.0000000  0.0000000  0.0000000 )


      isym = 34     inv. 180 deg rotation - cart. axis [-1,0,1]  

 cryst.   s(34) = (     0          0          1      )
                  (     0          1          0      )
                  (     1          0          0      )

 cart.    s(34) = (  0.0000000 -0.0000000  1.0000000 )
                  (  0.0000000  1.0000000 -0.0000000 )
                  (  1.0000000  0.0000000 -0.0000000 )


      isym = 35     inv.  90 deg rotation - cart. axis [0,1,0]   

 cryst.   s(35) = (     0          0         -1      )
                  (     1          0         -1      )
                  (     0          1         -1      )

 cart.    s(35) = (  0.0000000  0.0000000 -1.0000000 )
                  (  0.0000000 -1.0000000  0.0000000 )
                  (  1.0000000 -0.0000000  0.0000000 )


      isym = 36     inv.  90 deg rotation - cart. axis [0,-1,0]  

 cryst.   s(36) = (    -1          1          0      )
                  (    -1          0          1      )
                  (    -1          0          0      )

 cart.    s(36) = ( -0.0000000  0.0000000  1.0000000 )
                  ( -0.0000000 -1.0000000 -0.0000000 )
                  ( -1.0000000 -0.0000000 -0.0000000 )


      isym = 37     inv. 180 deg rotation - cart. axis [0,1,1]   

 cryst.   s(37) = (    -1          0          0      )
                  (    -1          1          0      )
                  (    -1          0          1      )

 cart.    s(37) = (  1.0000000 -0.0000000  0.0000000 )
                  ( -0.0000000 -0.0000000 -1.0000000 )
                  ( -0.0000000 -1.0000000 -0.0000000 )


      isym = 38     inv. 180 deg rotation - cart. axis [0,1,-1]  

 cryst.   s(38) = (     1          0          0      )
                  (     0          0          1      )
                  (     0          1          0      )

 cart.    s(38) = (  1.0000000  0.0000000 -0.0000000 )
                  ( -0.0000000  0.0000000  1.0000000 )
                  ( -0.0000000  1.0000000  0.0000000 )


      isym = 39     inv.  90 deg rotation - cart. axis [-1,0,0]  

 cryst.   s(39) = (     0          1         -1      )
                  (     0          0         -1      )
                  (     1          0         -1      )

 cart.    s(39) = ( -1.0000000  0.0000000  0.0000000 )
                  (  0.0000000  0.0000000 -1.0000000 )
                  (  0.0000000  1.0000000 -0.0000000 )


      isym = 40     inv.  90 deg rotation - cart. axis [1,0,0]   

 cryst.   s(40) = (     0         -1          1      )
                  (     1         -1          0      )
                  (     0         -1          0      )

 cart.    s(40) = ( -1.0000000 -0.0000000 -0.0000000 )
                  (  0.0000000 -0.0000000  1.0000000 )
                  (  0.0000000 -1.0000000  0.0000000 )


      isym = 41     inv. 120 deg rotation - cart. axis [-1,-1,-1]

 cryst.   s(41) = (     0          0         -1      )
                  (    -1          0          0      )
                  (     0         -1          0      )

 cart.    s(41) = ( -0.0000000 -1.0000000  0.0000000 )
                  ( -0.0000000  0.0000000 -1.0000000 )
                  ( -1.0000000  0.0000000 -0.0000000 )


      isym = 42     inv. 120 deg rotation - cart. axis [-1,1,1]  

 cryst.   s(42) = (    -1          1          0      )
                  (     0          1         -1      )
                  (     0          1          0      )

 cart.    s(42) = (  0.0000000  1.0000000  0.0000000 )
                  (  0.0000000 -0.0000000 -1.0000000 )
                  (  1.0000000 -0.0000000 -0.0000000 )


      isym = 43     inv. 120 deg rotation - cart. axis [1,1,-1]  

 cryst.   s(43) = (     1         -1          0      )
                  (     1          0          0      )
                  (     1          0         -1      )

 cart.    s(43) = (  0.0000000 -1.0000000 -0.0000000 )
                  (  0.0000000  0.0000000  1.0000000 )
                  (  1.0000000  0.0000000  0.0000000 )


      isym = 44     inv. 120 deg rotation - cart. axis [1,-1,1]  

 cryst.   s(44) = (     0          0          1      )
                  (     0         -1          1      )
                  (    -1          0          1      )

 cart.    s(44) = ( -0.0000000  1.0000000 -0.0000000 )
                  ( -0.0000000 -0.0000000  1.0000000 )
                  ( -1.0000000 -0.0000000  0.0000000 )


      isym = 45     inv. 120 deg rotation - cart. axis [1,1,1]   

 cryst.   s(45) = (     0         -1          0      )
                  (     0          0         -1      )
                  (    -1          0          0      )

 cart.    s(45) = (  0.0000000 -0.0000000 -1.0000000 )
                  ( -1.0000000 -0.0000000  0.0000000 )
                  ( -0.0000000 -1.0000000  0.0000000 )


      isym = 46     inv. 120 deg rotation - cart. axis [-1,1,-1] 

 cryst.   s(46) = (     1          0         -1      )
                  (     1         -1          0      )
                  (     1          0          0      )

 cart.    s(46) = ( -0.0000000  0.0000000 -1.0000000 )
                  (  1.0000000  0.0000000  0.0000000 )
                  (  0.0000000  1.0000000  0.0000000 )


      isym = 47     inv. 120 deg rotation - cart. axis [1,-1,-1] 

 cryst.   s(47) = (    -1          0          1      )
                  (     0          0          1      )
                  (     0         -1          1      )

 cart.    s(47) = ( -0.0000000 -0.0000000  1.0000000 )
                  (  1.0000000 -0.0000000 -0.0000000 )
                  (  0.0000000 -1.0000000 -0.0000000 )


      isym = 48     inv. 120 deg rotation - cart. axis [-1,-1,1] 

 cryst.   s(48) = (     0          1          0      )
                  (    -1          1          0      )
                  (     0          1         -1      )

 cart.    s(48) = (  0.0000000  0.0000000  1.0000000 )
                  ( -1.0000000  0.0000000 -0.0000000 )
                  ( -0.0000000  1.0000000 -0.0000000 )


   Cartesian axes

     site n.     atom                  positions (alat units)
         1        Hf     tau(   1) = (   0.7071068   0.0000000   0.0000000  )
         2        Mn     tau(   2) = (   0.0000000   0.0000000   0.0000000  )
         3        F      tau(   3) = (   1.1073292   0.0000000   0.0000000  )
         4        F      tau(   4) = (   0.7071068   0.4002224  -0.0000000  )
         5        F      tau(   5) = (  -0.0000000  -0.0000000   1.1073292  )
         6        F      tau(   6) = (   0.7071068   0.0000000   1.0139911  )
         7        F      tau(   7) = (   0.7071068   1.0139911   0.0000000  )
         8        F      tau(   8) = (   0.3068843  -0.0000000  -0.0000000  )

   Crystallographic axes

     site n.     atom                  positions (cryst. coord.)
         1        Hf     tau(   1) = ( -0.5000000  0.5000000  0.5000000  )
         2        Mn     tau(   2) = (  0.0000000  0.0000000  0.0000000  )
         3        F      tau(   3) = ( -0.7830000  0.7830000  0.7830000  )
         4        F      tau(   4) = ( -0.2170000  0.2170000  0.7830000  )
         5        F      tau(   5) = (  0.7830000  0.7830000 -0.7830000  )
         6        F      tau(   6) = (  0.2170000  1.2170000 -0.2170000  )
         7        F      tau(   7) = (  0.2170000 -0.2170000  1.2170000  )
         8        F      tau(   8) = ( -0.2170000  0.2170000  0.2170000  )

     number of k points=    35  Marzari-Vanderbilt smearing, width (Ry)=  0.0200
                       cart. coord. in units 2pi/alat
        k(    1) = (   0.0000000   0.0000000   0.0000000), wk =   0.0013717
        k(    2) = (   0.0785674   0.0785674  -0.0785674), wk =   0.0109739
        k(    3) = (   0.1571348   0.1571348  -0.1571348), wk =   0.0109739
        k(    4) = (   0.2357023   0.2357023  -0.2357023), wk =   0.0109739
        k(    5) = (   0.3142697   0.3142697  -0.3142697), wk =   0.0109739
        k(    6) = (   0.1571348   0.0000000  -0.0000000), wk =   0.0082305
        k(    7) = (   0.2357023   0.0785674  -0.0785674), wk =   0.0329218
        k(    8) = (   0.3142697   0.1571348  -0.1571348), wk =   0.0329218
        k(    9) = (   0.3928371   0.2357023  -0.2357023), wk =   0.0329218
        k(   10) = (  -0.2357023  -0.3928371   0.3928371), wk =   0.0329218
        k(   11) = (  -0.1571348  -0.3142697   0.3142697), wk =   0.0329218
        k(   12) = (  -0.0785674  -0.2357023   0.2357023), wk =   0.0329218
        k(   13) = (  -0.0000000  -0.1571348   0.1571348), wk =   0.0164609
        k(   14) = (   0.3142697   0.0000000  -0.0000000), wk =   0.0082305
        k(   15) = (   0.3928371   0.0785674  -0.0785674), wk =   0.0329218
        k(   16) = (   0.4714045   0.1571348  -0.1571348), wk =   0.0329218
        k(   17) = (  -0.1571348  -0.4714045   0.4714045), wk =   0.0329218
        k(   18) = (  -0.0785674  -0.3928371   0.3928371), wk =   0.0329218
        k(   19) = (  -0.0000000  -0.3142697   0.3142697), wk =   0.0164609
        k(   20) = (   0.4714045   0.0000000  -0.0000000), wk =   0.0082305
        k(   21) = (   0.5499719   0.0785674  -0.0785674), wk =   0.0329218
        k(   22) = (  -0.0785674  -0.5499719   0.5499719), wk =   0.0329218
        k(   23) = (  -0.0000000  -0.4714045   0.4714045), wk =   0.0164609
        k(   24) = (   0.6285394   0.0000000  -0.0000000), wk =   0.0082305
        k(   25) = (  -0.0000000  -0.6285394   0.6285394), wk =   0.0164609
        k(   26) = (   0.3142697   0.1571348  -0.0000000), wk =   0.0329218
        k(   27) = (   0.3928371   0.2357023  -0.0785674), wk =   0.0658436
        k(   28) = (  -0.2357023  -0.3928371   0.5499719), wk =   0.0658436
        k(   29) = (   0.4714045   0.1571348  -0.0000000), wk =   0.0329218
        k(   30) = (  -0.1571348  -0.4714045   0.6285394), wk =   0.0658436
        k(   31) = (  -0.0785674  -0.3928371   0.5499719), wk =   0.0658436
        k(   32) = (  -0.0000000  -0.3142697   0.4714045), wk =   0.0329218
        k(   33) = (  -0.0785674  -0.5499719   0.7071068), wk =   0.0329218
        k(   34) = (  -0.0000000  -0.4714045   0.6285394), wk =   0.0329218
        k(   35) = (  -0.0785674  -0.3928371   0.7071068), wk =   0.0329218

                       cryst. coord.
        k(    1) = (   0.0000000   0.0000000   0.0000000), wk =   0.0013717
        k(    2) = (  -0.0000000  -0.0000000   0.1111111), wk =   0.0109739
        k(    3) = (  -0.0000000  -0.0000000   0.2222222), wk =   0.0109739
        k(    4) = (   0.0000000   0.0000000   0.3333333), wk =   0.0109739
        k(    5) = (  -0.0000000  -0.0000000   0.4444444), wk =   0.0109739
        k(    6) = (  -0.0000000   0.1111111   0.1111111), wk =   0.0082305
        k(    7) = (   0.0000000   0.1111111   0.2222222), wk =   0.0329218
        k(    8) = (   0.0000000   0.1111111   0.3333333), wk =   0.0329218
        k(    9) = (   0.0000000   0.1111111   0.4444444), wk =   0.0329218
        k(   10) = (  -0.0000000   0.1111111  -0.4444444), wk =   0.0329218
        k(   11) = (  -0.0000000   0.1111111  -0.3333333), wk =   0.0329218
        k(   12) = (  -0.0000000   0.1111111  -0.2222222), wk =   0.0329218
        k(   13) = (   0.0000000   0.1111111  -0.1111111), wk =   0.0164609
        k(   14) = (  -0.0000000   0.2222222   0.2222222), wk =   0.0082305
        k(   15) = (   0.0000000   0.2222222   0.3333333), wk =   0.0329218
        k(   16) = (   0.0000000   0.2222222   0.4444444), wk =   0.0329218
        k(   17) = (  -0.0000000   0.2222222  -0.4444444), wk =   0.0329218
        k(   18) = (  -0.0000000   0.2222222  -0.3333333), wk =   0.0329218
        k(   19) = (   0.0000000   0.2222222  -0.2222222), wk =   0.0164609
        k(   20) = (  -0.0000000   0.3333333   0.3333333), wk =   0.0082305
        k(   21) = (   0.0000000   0.3333333   0.4444444), wk =   0.0329218
        k(   22) = (  -0.0000000   0.3333333  -0.4444444), wk =   0.0329218
        k(   23) = (   0.0000000   0.3333333  -0.3333333), wk =   0.0164609
        k(   24) = (  -0.0000000   0.4444444   0.4444444), wk =   0.0082305
        k(   25) = (   0.0000000   0.4444444  -0.4444444), wk =   0.0164609
        k(   26) = (   0.1111111   0.2222222   0.3333333), wk =   0.0329218
        k(   27) = (   0.1111111   0.2222222   0.4444444), wk =   0.0658436
        k(   28) = (   0.1111111   0.2222222  -0.4444444), wk =   0.0658436
        k(   29) = (   0.1111111   0.3333333   0.4444444), wk =   0.0329218
        k(   30) = (   0.1111111   0.3333333  -0.4444444), wk =   0.0658436
        k(   31) = (   0.1111111   0.3333333  -0.3333333), wk =   0.0658436
        k(   32) = (   0.1111111   0.3333333  -0.2222222), wk =   0.0329218
        k(   33) = (   0.1111111   0.4444444  -0.4444444), wk =   0.0329218
        k(   34) = (   0.1111111   0.4444444  -0.3333333), wk =   0.0329218
        k(   35) = (   0.2222222   0.4444444  -0.3333333), wk =   0.0329218

     Dense  grid:   337381 G-vectors     FFT dimensions: ( 100, 100, 100)

     Smooth grid:    64767 G-vectors     FFT dimensions: (  60,  60,  60)

     Dynamical RAM for                 wfc:       0.74 MB

     Dynamical RAM for     wfc (w. buffer):       7.42 MB

     Dynamical RAM for           str. fact:       2.21 MB

     Dynamical RAM for           local pot:       0.00 MB

     Dynamical RAM for          nlocal pot:       1.73 MB

     Dynamical RAM for                qrad:      16.13 MB

     Dynamical RAM for          rho,v,vnew:      11.28 MB

     Dynamical RAM for               rhoin:       3.76 MB

     Dynamical RAM for            rho*nmix:      23.53 MB

     Dynamical RAM for           G-vectors:       2.83 MB

     Dynamical RAM for          h,s,v(r/c):       0.32 MB

     Dynamical RAM for          <psi|beta>:       0.06 MB

     Dynamical RAM for                 psi:       1.48 MB

     Dynamical RAM for                hpsi:       1.48 MB

     Dynamical RAM for                spsi:       1.48 MB

     Dynamical RAM for      wfcinit/wfcrot:       1.71 MB

     Dynamical RAM for           addusdens:      20.13 MB

     Dynamical RAM for          addusforce:      20.45 MB

     Dynamical RAM for         addusstress:      21.46 MB

     Estimated static dynamical RAM per process >      55.16 MB

     Estimated max dynamical RAM per process >     100.16 MB

     Estimated total dynamical RAM >       4.35 GB

     Check: negative core charge=   -0.000005
     Generating pointlists ...
     new r_m :   0.1266 (alat units)  1.3803 (a.u.) for type    1
     new r_m :   0.1651 (alat units)  1.8001 (a.u.) for type    2
     new r_m :   0.1266 (alat units)  1.3803 (a.u.) for type    3

     Initial potential from superposition of free atoms

     starting charge      68.4982, renormalised to      69.0000
     Starting wfcs are   47 randomized atomic wfcs

     total cpu time spent up to now is        2.3 secs

     per-process dynamical memory:    72.5 Mb

     Self-consistent Calculation

     iteration #  1     ecut=    65.00 Ry     beta= 0.40
     Davidson diagonalization with overlap

---- Real-time Memory Report at c_bands before calling an iterative solver
           111 MiB given to the printing process from OS
            70 MiB allocation reported by mallinfo(arena+hblkhd)
        484102 MiB available memory on the node where the printing process lives
------------------
     ethr =  1.00E-02,  avg # of iterations =  2.2

     total cpu time spent up to now is        3.9 secs

     WARNING: integrated charge=    69.00122990, expected=    69.00000000

     total energy              =    -614.72967315 Ry
     estimated scf accuracy    <       1.98435570 Ry

     total magnetization       =     5.00 Bohr mag/cell
     absolute magnetization    =     5.12 Bohr mag/cell

     iteration #  2     ecut=    65.00 Ry     beta= 0.40
     Davidson diagonalization with overlap

---- Real-time Memory Report at c_bands before calling an iterative solver
           134 MiB given to the printing process from OS
           103 MiB allocation reported by mallinfo(arena+hblkhd)
        483059 MiB available memory on the node where the printing process lives
------------------
     ethr =  2.88E-03,  avg # of iterations =  5.5

     total cpu time spent up to now is        5.9 secs

     WARNING: integrated charge=    69.00112207, expected=    69.00000000

     total energy              =    -613.73888556 Ry
     estimated scf accuracy    <      15.00953943 Ry

     total magnetization       =     2.24 Bohr mag/cell
     absolute magnetization    =     2.48 Bohr mag/cell

     iteration #  3     ecut=    65.00 Ry     beta= 0.40
     Davidson diagonalization with overlap

---- Real-time Memory Report at c_bands before calling an iterative solver
           137 MiB given to the printing process from OS
            89 MiB allocation reported by mallinfo(arena+hblkhd)
        483015 MiB available memory on the node where the printing process lives
------------------
     ethr =  2.88E-03,  avg # of iterations =  4.7

     total cpu time spent up to now is        7.7 secs

     WARNING: integrated charge=    69.00074399, expected=    69.00000000

     total energy              =    -615.36174964 Ry
     estimated scf accuracy    <       1.03637882 Ry

     total magnetization       =     5.00 Bohr mag/cell
     absolute magnetization    =     5.06 Bohr mag/cell

     iteration #  4     ecut=    65.00 Ry     beta= 0.40
     Davidson diagonalization with overlap

---- Real-time Memory Report at c_bands before calling an iterative solver
           139 MiB given to the printing process from OS
            89 MiB allocation reported by mallinfo(arena+hblkhd)
        482989 MiB available memory on the node where the printing process lives
------------------
     ethr =  1.50E-03,  avg # of iterations =  1.2

     negative rho (up, down):  0.000E+00 5.436E-05

     total cpu time spent up to now is        9.1 secs

     WARNING: integrated charge=    69.00005372, expected=    69.00000000

     total energy              =    -615.30565862 Ry
     estimated scf accuracy    <       0.50071945 Ry

     total magnetization       =     4.99 Bohr mag/cell
     absolute magnetization    =     5.04 Bohr mag/cell

     iteration #  5     ecut=    65.00 Ry     beta= 0.40
     Davidson diagonalization with overlap

---- Real-time Memory Report at c_bands before calling an iterative solver
           140 MiB given to the printing process from OS
            90 MiB allocation reported by mallinfo(arena+hblkhd)
        482969 MiB available memory on the node where the printing process lives
------------------
     ethr =  7.26E-04,  avg # of iterations =  3.8

     negative rho (up, down):  0.000E+00 5.469E-05

     total cpu time spent up to now is       10.8 secs

     WARNING: integrated charge=    69.00004993, expected=    69.00000000

     total energy              =    -615.41071620 Ry
     estimated scf accuracy    <       1.01568682 Ry

     total magnetization       =     4.25 Bohr mag/cell
     absolute magnetization    =     4.36 Bohr mag/cell

     iteration #  6     ecut=    65.00 Ry     beta= 0.40
     Davidson diagonalization with overlap

---- Real-time Memory Report at c_bands before calling an iterative solver
           140 MiB given to the printing process from OS
            90 MiB allocation reported by mallinfo(arena+hblkhd)
        482948 MiB available memory on the node where the printing process lives
------------------
     ethr =  7.26E-04,  avg # of iterations =  1.7

     negative rho (up, down):  0.000E+00 5.645E-05

     total cpu time spent up to now is       12.4 secs

     WARNING: integrated charge=    69.00003944, expected=    69.00000000

     total energy              =    -615.37615885 Ry
     estimated scf accuracy    <       0.64681999 Ry

     total magnetization       =     4.41 Bohr mag/cell
     absolute magnetization    =     4.51 Bohr mag/cell

     iteration #  7     ecut=    65.00 Ry     beta= 0.40
     Davidson diagonalization with overlap

---- Real-time Memory Report at c_bands before calling an iterative solver
           141 MiB given to the printing process from OS
            91 MiB allocation reported by mallinfo(arena+hblkhd)
        482925 MiB available memory on the node where the printing process lives
------------------
     ethr =  7.26E-04,  avg # of iterations =  1.1

     negative rho (up, down):  0.000E+00 6.417E-05

     total cpu time spent up to now is       13.8 secs

     WARNING: integrated charge=    68.99998965, expected=    69.00000000

     total energy              =    -615.38402974 Ry
     estimated scf accuracy    <       0.06764129 Ry

     total magnetization       =     4.72 Bohr mag/cell
     absolute magnetization    =     4.79 Bohr mag/cell

     iteration #  8     ecut=    65.00 Ry     beta= 0.40
     Davidson diagonalization with overlap

---- Real-time Memory Report at c_bands before calling an iterative solver
           142 MiB given to the printing process from OS
            91 MiB allocation reported by mallinfo(arena+hblkhd)
        482908 MiB available memory on the node where the printing process lives
------------------
     ethr =  9.80E-05,  avg # of iterations =  4.4

     negative rho (up, down):  0.000E+00 6.340E-05

     total cpu time spent up to now is       15.6 secs

     WARNING: integrated charge=    68.99999006, expected=    69.00000000

     total energy              =    -615.38845768 Ry
     estimated scf accuracy    <       0.00174695 Ry

     total magnetization       =     4.76 Bohr mag/cell
     absolute magnetization    =     4.82 Bohr mag/cell

     iteration #  9     ecut=    65.00 Ry     beta= 0.40
     Davidson diagonalization with overlap

---- Real-time Memory Report at c_bands before calling an iterative solver
           143 MiB given to the printing process from OS
            92 MiB allocation reported by mallinfo(arena+hblkhd)
        482895 MiB available memory on the node where the printing process lives
------------------
     ethr =  2.53E-06,  avg # of iterations =  5.8

     negative rho (up, down):  0.000E+00 6.188E-05

     total cpu time spent up to now is       17.5 secs

     total energy              =    -615.38872039 Ry
     estimated scf accuracy    <       0.00082614 Ry

     total magnetization       =     4.74 Bohr mag/cell
     absolute magnetization    =     4.80 Bohr mag/cell

     iteration # 10     ecut=    65.00 Ry     beta= 0.40
     Davidson diagonalization with overlap

---- Real-time Memory Report at c_bands before calling an iterative solver
           144 MiB given to the printing process from OS
            92 MiB allocation reported by mallinfo(arena+hblkhd)
        482883 MiB available memory on the node where the printing process lives
------------------
     ethr =  1.20E-06,  avg # of iterations =  1.0

     negative rho (up, down):  0.000E+00 6.085E-05

     total cpu time spent up to now is       18.9 secs

     total energy              =    -615.38874234 Ry
     estimated scf accuracy    <       0.00014080 Ry

     total magnetization       =     4.72 Bohr mag/cell
     absolute magnetization    =     4.78 Bohr mag/cell

     iteration # 11     ecut=    65.00 Ry     beta= 0.40
     Davidson diagonalization with overlap

---- Real-time Memory Report at c_bands before calling an iterative solver
           144 MiB given to the printing process from OS
            92 MiB allocation reported by mallinfo(arena+hblkhd)
        482875 MiB available memory on the node where the printing process lives
------------------
     ethr =  2.04E-07,  avg # of iterations =  2.7

     negative rho (up, down):  0.000E+00 6.071E-05

     total cpu time spent up to now is       20.5 secs

     total energy              =    -615.38875911 Ry
     estimated scf accuracy    <       0.00000501 Ry

     total magnetization       =     4.70 Bohr mag/cell
     absolute magnetization    =     4.75 Bohr mag/cell

     iteration # 12     ecut=    65.00 Ry     beta= 0.40
     Davidson diagonalization with overlap

---- Real-time Memory Report at c_bands before calling an iterative solver
           144 MiB given to the printing process from OS
            92 MiB allocation reported by mallinfo(arena+hblkhd)
        482871 MiB available memory on the node where the printing process lives
------------------
     ethr =  7.26E-09,  avg # of iterations =  3.4

     negative rho (up, down):  0.000E+00 5.970E-05

     total cpu time spent up to now is       22.2 secs

     total energy              =    -615.38877313 Ry
     estimated scf accuracy    <       0.00000763 Ry

     total magnetization       =     4.69 Bohr mag/cell
     absolute magnetization    =     4.75 Bohr mag/cell

     iteration # 13     ecut=    65.00 Ry     beta= 0.40
     Davidson diagonalization with overlap

---- Real-time Memory Report at c_bands before calling an iterative solver
           144 MiB given to the printing process from OS
            92 MiB allocation reported by mallinfo(arena+hblkhd)
        482857 MiB available memory on the node where the printing process lives
------------------
     ethr =  7.26E-09,  avg # of iterations =  4.6

     negative rho (up, down):  0.000E+00 5.723E-05

     total cpu time spent up to now is       24.1 secs

     total energy              =    -615.38878397 Ry
     estimated scf accuracy    <       0.00006552 Ry

     total magnetization       =     4.65 Bohr mag/cell
     absolute magnetization    =     4.70 Bohr mag/cell

     iteration # 14     ecut=    65.00 Ry     beta= 0.40
     Davidson diagonalization with overlap

---- Real-time Memory Report at c_bands before calling an iterative solver
           144 MiB given to the printing process from OS
            92 MiB allocation reported by mallinfo(arena+hblkhd)
        482855 MiB available memory on the node where the printing process lives
------------------
     ethr =  7.26E-09,  avg # of iterations =  4.9

     negative rho (up, down):  0.000E+00 6.116E-05

     total cpu time spent up to now is       26.3 secs

     total energy              =    -615.38832340 Ry
     estimated scf accuracy    <       0.00010932 Ry

     total magnetization       =     4.54 Bohr mag/cell
     absolute magnetization    =     4.60 Bohr mag/cell

     iteration # 15     ecut=    65.00 Ry     beta= 0.40
     Davidson diagonalization with overlap

---- Real-time Memory Report at c_bands before calling an iterative solver
           144 MiB given to the printing process from OS
            92 MiB allocation reported by mallinfo(arena+hblkhd)
        482849 MiB available memory on the node where the printing process lives
------------------
     ethr =  7.26E-09,  avg # of iterations =  5.9

     negative rho (up, down):  0.000E+00 6.497E-05

     total cpu time spent up to now is       28.6 secs

     total energy              =    -615.38832230 Ry
     estimated scf accuracy    <       0.00002016 Ry

     total magnetization       =     4.73 Bohr mag/cell
     absolute magnetization    =     4.79 Bohr mag/cell

     iteration # 16     ecut=    65.00 Ry     beta= 0.40
     Davidson diagonalization with overlap

---- Real-time Memory Report at c_bands before calling an iterative solver
           144 MiB given to the printing process from OS
            92 MiB allocation reported by mallinfo(arena+hblkhd)
        482848 MiB available memory on the node where the printing process lives
------------------
     ethr =  7.26E-09,  avg # of iterations =  5.9

     negative rho (up, down):  0.000E+00 5.987E-05

     total cpu time spent up to now is       30.9 secs

     total energy              =    -615.38839115 Ry
     estimated scf accuracy    <       0.00001671 Ry

     total magnetization       =     4.86 Bohr mag/cell
     absolute magnetization    =     4.92 Bohr mag/cell

     iteration # 17     ecut=    65.00 Ry     beta= 0.40
     Davidson diagonalization with overlap

---- Real-time Memory Report at c_bands before calling an iterative solver
           145 MiB given to the printing process from OS
            92 MiB allocation reported by mallinfo(arena+hblkhd)
        482841 MiB available memory on the node where the printing process lives
------------------
     ethr =  7.26E-09,  avg # of iterations =  6.0

     negative rho (up, down):  0.000E+00 5.888E-05

     total cpu time spent up to now is       33.2 secs

     total energy              =    -615.38877779 Ry
     estimated scf accuracy    <       0.00000659 Ry

     total magnetization       =     4.69 Bohr mag/cell
     absolute magnetization    =     4.74 Bohr mag/cell

     iteration # 18     ecut=    65.00 Ry     beta= 0.40
     Davidson diagonalization with overlap

---- Real-time Memory Report at c_bands before calling an iterative solver
           145 MiB given to the printing process from OS
            92 MiB allocation reported by mallinfo(arena+hblkhd)
        482839 MiB available memory on the node where the printing process lives
------------------
     ethr =  7.26E-09,  avg # of iterations =  3.7

     negative rho (up, down):  0.000E+00 6.217E-05

     total cpu time spent up to now is       35.1 secs

     total energy              =    -615.38848384 Ry
     estimated scf accuracy    <       0.00000727 Ry

     total magnetization       =     4.64 Bohr mag/cell
     absolute magnetization    =     4.70 Bohr mag/cell

     iteration # 19     ecut=    65.00 Ry     beta= 0.40
     Davidson diagonalization with overlap

---- Real-time Memory Report at c_bands before calling an iterative solver
           145 MiB given to the printing process from OS
            92 MiB allocation reported by mallinfo(arena+hblkhd)
        482837 MiB available memory on the node where the printing process lives
------------------
     ethr =  7.26E-09,  avg # of iterations =  5.7

     negative rho (up, down):  0.000E+00 6.568E-05

     total cpu time spent up to now is       37.3 secs

     total energy              =    -615.38834851 Ry
     estimated scf accuracy    <       0.00000635 Ry

     total magnetization       =     4.78 Bohr mag/cell
     absolute magnetization    =     4.83 Bohr mag/cell

     iteration # 20     ecut=    65.00 Ry     beta= 0.40
     Davidson diagonalization with overlap

---- Real-time Memory Report at c_bands before calling an iterative solver
           145 MiB given to the printing process from OS
            92 MiB allocation reported by mallinfo(arena+hblkhd)
        482834 MiB available memory on the node where the printing process lives
------------------
     ethr =  7.26E-09,  avg # of iterations =  5.8

     negative rho (up, down):  0.000E+00 5.832E-05

     total cpu time spent up to now is       39.5 secs

     total energy              =    -615.38803700 Ry
     estimated scf accuracy    <       0.00002569 Ry

     total magnetization       =     4.87 Bohr mag/cell
     absolute magnetization    =     4.93 Bohr mag/cell

     iteration # 21     ecut=    65.00 Ry     beta= 0.40
     Davidson diagonalization with overlap

---- Real-time Memory Report at c_bands before calling an iterative solver
           145 MiB given to the printing process from OS
            92 MiB allocation reported by mallinfo(arena+hblkhd)
        482829 MiB available memory on the node where the printing process lives
------------------
     ethr =  7.26E-09,  avg # of iterations =  7.0

     negative rho (up, down):  0.000E+00 5.614E-05

     total cpu time spent up to now is       42.1 secs

     total energy              =    -615.38881513 Ry
     estimated scf accuracy    <       0.00000911 Ry

     total magnetization       =     4.62 Bohr mag/cell
     absolute magnetization    =     4.67 Bohr mag/cell

     iteration # 22     ecut=    65.00 Ry     beta= 0.40
     Davidson diagonalization with overlap

---- Real-time Memory Report at c_bands before calling an iterative solver
           145 MiB given to the printing process from OS
            92 MiB allocation reported by mallinfo(arena+hblkhd)
        482829 MiB available memory on the node where the printing process lives
------------------
     ethr =  7.26E-09,  avg # of iterations =  4.9

     negative rho (up, down):  0.000E+00 5.719E-05

     total cpu time spent up to now is       44.3 secs

     total energy              =    -615.38883678 Ry
     estimated scf accuracy    <       0.00002409 Ry

     total magnetization       =     4.51 Bohr mag/cell
     absolute magnetization    =     4.56 Bohr mag/cell

     iteration # 23     ecut=    65.00 Ry     beta= 0.40
     Davidson diagonalization with overlap

---- Real-time Memory Report at c_bands before calling an iterative solver
           145 MiB given to the printing process from OS
            92 MiB allocation reported by mallinfo(arena+hblkhd)
        482828 MiB available memory on the node where the printing process lives
------------------
     ethr =  7.26E-09,  avg # of iterations =  4.0

     negative rho (up, down):  0.000E+00 5.695E-05

     total cpu time spent up to now is       46.1 secs

     total energy              =    -615.38887371 Ry
     estimated scf accuracy    <       0.00001518 Ry

     total magnetization       =     4.56 Bohr mag/cell
     absolute magnetization    =     4.62 Bohr mag/cell

     iteration # 24     ecut=    65.00 Ry     beta= 0.40
     Davidson diagonalization with overlap

---- Real-time Memory Report at c_bands before calling an iterative solver
           145 MiB given to the printing process from OS
            92 MiB allocation reported by mallinfo(arena+hblkhd)
        482828 MiB available memory on the node where the printing process lives
------------------
     ethr =  7.26E-09,  avg # of iterations =  1.3

     negative rho (up, down):  0.000E+00 5.688E-05

     total cpu time spent up to now is       47.6 secs

     total energy              =    -615.38887582 Ry
     estimated scf accuracy    <       0.00001656 Ry

     total magnetization       =     4.55 Bohr mag/cell
     absolute magnetization    =     4.61 Bohr mag/cell

     iteration # 25     ecut=    65.00 Ry     beta= 0.40
     Davidson diagonalization with overlap

---- Real-time Memory Report at c_bands before calling an iterative solver
           145 MiB given to the printing process from OS
            92 MiB allocation reported by mallinfo(arena+hblkhd)
        482823 MiB available memory on the node where the printing process lives
------------------
     ethr =  7.26E-09,  avg # of iterations =  1.0

     negative rho (up, down):  0.000E+00 5.811E-05

     total cpu time spent up to now is       49.0 secs

     total energy              =    -615.38878377 Ry
     estimated scf accuracy    <       0.00001838 Ry

     total magnetization       =     4.55 Bohr mag/cell
     absolute magnetization    =     4.61 Bohr mag/cell

     iteration # 26     ecut=    65.00 Ry     beta= 0.40
     Davidson diagonalization with overlap

---- Real-time Memory Report at c_bands before calling an iterative solver
           145 MiB given to the printing process from OS
            92 MiB allocation reported by mallinfo(arena+hblkhd)
        482823 MiB available memory on the node where the printing process lives
------------------
     ethr =  7.26E-09,  avg # of iterations =  4.1

     negative rho (up, down):  0.000E+00 5.639E-05

     total cpu time spent up to now is       50.9 secs

     total energy              =    -615.38883259 Ry
     estimated scf accuracy    <       0.00001219 Ry

     total magnetization       =     4.61 Bohr mag/cell
     absolute magnetization    =     4.67 Bohr mag/cell

     iteration # 27     ecut=    65.00 Ry     beta= 0.40
     Davidson diagonalization with overlap

---- Real-time Memory Report at c_bands before calling an iterative solver
           145 MiB given to the printing process from OS
            92 MiB allocation reported by mallinfo(arena+hblkhd)
        482823 MiB available memory on the node where the printing process lives
------------------
     ethr =  7.26E-09,  avg # of iterations =  4.4

     negative rho (up, down):  0.000E+00 5.799E-05

     total cpu time spent up to now is       52.9 secs

     total energy              =    -615.38876137 Ry
     estimated scf accuracy    <       0.00002478 Ry

     total magnetization       =     4.53 Bohr mag/cell
     absolute magnetization    =     4.58 Bohr mag/cell

     iteration # 28     ecut=    65.00 Ry     beta= 0.40
     Davidson diagonalization with overlap

---- Real-time Memory Report at c_bands before calling an iterative solver
           145 MiB given to the printing process from OS
            92 MiB allocation reported by mallinfo(arena+hblkhd)
        482822 MiB available memory on the node where the printing process lives
------------------
     ethr =  7.26E-09,  avg # of iterations =  4.2

     negative rho (up, down):  0.000E+00 5.963E-05

     total cpu time spent up to now is       54.9 secs

     total energy              =    -615.38870625 Ry
     estimated scf accuracy    <       0.00001273 Ry

     total magnetization       =     4.61 Bohr mag/cell
     absolute magnetization    =     4.67 Bohr mag/cell

     iteration # 29     ecut=    65.00 Ry     beta= 0.40
     Davidson diagonalization with overlap

---- Real-time Memory Report at c_bands before calling an iterative solver
           146 MiB given to the printing process from OS
            92 MiB allocation reported by mallinfo(arena+hblkhd)
        482819 MiB available memory on the node where the printing process lives
------------------
     ethr =  7.26E-09,  avg # of iterations =  4.7

     negative rho (up, down):  0.000E+00 6.288E-05

     total cpu time spent up to now is       57.0 secs

     total energy              =    -615.38846830 Ry
     estimated scf accuracy    <       0.00000861 Ry

     total magnetization       =     4.69 Bohr mag/cell
     absolute magnetization    =     4.74 Bohr mag/cell

     iteration # 30     ecut=    65.00 Ry     beta= 0.40
     Davidson diagonalization with overlap

---- Real-time Memory Report at c_bands before calling an iterative solver
           146 MiB given to the printing process from OS
            92 MiB allocation reported by mallinfo(arena+hblkhd)
        482818 MiB available memory on the node where the printing process lives
------------------
     ethr =  7.26E-09,  avg # of iterations =  5.8

     negative rho (up, down):  0.000E+00 6.033E-05

     total cpu time spent up to now is       59.2 secs

     total energy              =    -615.38864115 Ry
     estimated scf accuracy    <       0.00001385 Ry

     total magnetization       =     4.81 Bohr mag/cell
     absolute magnetization    =     4.86 Bohr mag/cell

     iteration # 31     ecut=    65.00 Ry     beta= 0.40
     Davidson diagonalization with overlap

---- Real-time Memory Report at c_bands before calling an iterative solver
           146 MiB given to the printing process from OS
            92 MiB allocation reported by mallinfo(arena+hblkhd)
        482817 MiB available memory on the node where the printing process lives
------------------
     ethr =  7.26E-09,  avg # of iterations =  5.0

     negative rho (up, down):  0.000E+00 6.004E-05

     total cpu time spent up to now is       61.4 secs

     total energy              =    -615.38875110 Ry
     estimated scf accuracy    <       0.00000783 Ry

     total magnetization       =     4.71 Bohr mag/cell
     absolute magnetization    =     4.77 Bohr mag/cell

     iteration # 32     ecut=    65.00 Ry     beta= 0.40
     Davidson diagonalization with overlap

---- Real-time Memory Report at c_bands before calling an iterative solver
           146 MiB given to the printing process from OS
            92 MiB allocation reported by mallinfo(arena+hblkhd)
        482817 MiB available memory on the node where the printing process lives
------------------
     ethr =  7.26E-09,  avg # of iterations =  2.0

     negative rho (up, down):  0.000E+00 6.046E-05

     total cpu time spent up to now is       62.9 secs

     total energy              =    -615.38873654 Ry
     estimated scf accuracy    <       0.00000751 Ry

     total magnetization       =     4.70 Bohr mag/cell
     absolute magnetization    =     4.76 Bohr mag/cell

     iteration # 33     ecut=    65.00 Ry     beta= 0.40
     Davidson diagonalization with overlap

---- Real-time Memory Report at c_bands before calling an iterative solver
           146 MiB given to the printing process from OS
            92 MiB allocation reported by mallinfo(arena+hblkhd)
        482848 MiB available memory on the node where the printing process lives
------------------
     ethr =  7.26E-09,  avg # of iterations =  2.0

     negative rho (up, down):  0.000E+00 6.031E-05

     total cpu time spent up to now is       64.4 secs

     total energy              =    -615.38874375 Ry
     estimated scf accuracy    <       0.00000800 Ry

     total magnetization       =     4.72 Bohr mag/cell
     absolute magnetization    =     4.78 Bohr mag/cell

     iteration # 34     ecut=    65.00 Ry     beta= 0.40
     Davidson diagonalization with overlap

---- Real-time Memory Report at c_bands before calling an iterative solver
           146 MiB given to the printing process from OS
            92 MiB allocation reported by mallinfo(arena+hblkhd)
        482846 MiB available memory on the node where the printing process lives
------------------
     ethr =  7.26E-09,  avg # of iterations =  1.0

     negative rho (up, down):  0.000E+00 5.995E-05

     total cpu time spent up to now is       65.8 secs

     total energy              =    -615.38875267 Ry
     estimated scf accuracy    <       0.00000839 Ry

     total magnetization       =     4.71 Bohr mag/cell
     absolute magnetization    =     4.77 Bohr mag/cell

     iteration # 35     ecut=    65.00 Ry     beta= 0.40
     Davidson diagonalization with overlap

---- Real-time Memory Report at c_bands before calling an iterative solver
           146 MiB given to the printing process from OS
            92 MiB allocation reported by mallinfo(arena+hblkhd)
        482853 MiB available memory on the node where the printing process lives
------------------
     ethr =  7.26E-09,  avg # of iterations =  1.9

     negative rho (up, down):  0.000E+00 5.836E-05

     total cpu time spent up to now is       67.3 secs

     total energy              =    -615.38875861 Ry
     estimated scf accuracy    <       0.00000810 Ry

     total magnetization       =     4.70 Bohr mag/cell
     absolute magnetization    =     4.76 Bohr mag/cell

     iteration # 36     ecut=    65.00 Ry     beta= 0.40
     Davidson diagonalization with overlap

---- Real-time Memory Report at c_bands before calling an iterative solver
           146 MiB given to the printing process from OS
            92 MiB allocation reported by mallinfo(arena+hblkhd)
        482853 MiB available memory on the node where the printing process lives
------------------
     ethr =  7.26E-09,  avg # of iterations =  4.4

     negative rho (up, down):  0.000E+00 6.115E-05

     total cpu time spent up to now is       69.3 secs

     total energy              =    -615.38858438 Ry
     estimated scf accuracy    <       0.00001166 Ry

     total magnetization       =     4.63 Bohr mag/cell
     absolute magnetization    =     4.69 Bohr mag/cell

     iteration # 37     ecut=    65.00 Ry     beta= 0.40
     Davidson diagonalization with overlap

---- Real-time Memory Report at c_bands before calling an iterative solver
           146 MiB given to the printing process from OS
            92 MiB allocation reported by mallinfo(arena+hblkhd)
        482853 MiB available memory on the node where the printing process lives
------------------
     ethr =  7.26E-09,  avg # of iterations =  5.0

     negative rho (up, down):  0.000E+00 5.587E-05

     total cpu time spent up to now is       71.5 secs

     total energy              =    -615.38839168 Ry
     estimated scf accuracy    <       0.00000666 Ry

     total magnetization       =     4.74 Bohr mag/cell
     absolute magnetization    =     4.80 Bohr mag/cell

     iteration # 38     ecut=    65.00 Ry     beta= 0.40
     Davidson diagonalization with overlap

---- Real-time Memory Report at c_bands before calling an iterative solver
           146 MiB given to the printing process from OS
            92 MiB allocation reported by mallinfo(arena+hblkhd)
        482848 MiB available memory on the node where the printing process lives
------------------
     ethr =  7.26E-09,  avg # of iterations =  5.8

     negative rho (up, down):  0.000E+00 7.321E-05

     total cpu time spent up to now is       73.9 secs

     total energy              =    -615.38242161 Ry
     estimated scf accuracy    <       0.00002999 Ry

     total magnetization       =     4.50 Bohr mag/cell
     absolute magnetization    =     4.56 Bohr mag/cell

     iteration # 39     ecut=    65.00 Ry     beta= 0.40
     Davidson diagonalization with overlap

---- Real-time Memory Report at c_bands before calling an iterative solver
           146 MiB given to the printing process from OS
            92 MiB allocation reported by mallinfo(arena+hblkhd)
        482848 MiB available memory on the node where the printing process lives
------------------
     ethr =  7.26E-09,  avg # of iterations =  7.6

     negative rho (up, down):  0.000E+00 6.041E-05

     total cpu time spent up to now is       76.7 secs

     total energy              =    -615.38737005 Ry
     estimated scf accuracy    <       0.00031234 Ry

     total magnetization       =     4.98 Bohr mag/cell
     absolute magnetization    =     5.04 Bohr mag/cell

     iteration # 40     ecut=    65.00 Ry     beta= 0.40
     Davidson diagonalization with overlap

---- Real-time Memory Report at c_bands before calling an iterative solver
           146 MiB given to the printing process from OS
            92 MiB allocation reported by mallinfo(arena+hblkhd)
        482848 MiB available memory on the node where the printing process lives
------------------
     ethr =  7.26E-09,  avg # of iterations =  7.3

     negative rho (up, down):  0.000E+00 5.298E-05

     total cpu time spent up to now is       79.4 secs

     total energy              =    -615.38797255 Ry
     estimated scf accuracy    <       0.00000564 Ry

     total magnetization       =     4.70 Bohr mag/cell
     absolute magnetization    =     4.76 Bohr mag/cell

     iteration # 41     ecut=    65.00 Ry     beta= 0.40
     Davidson diagonalization with overlap

---- Real-time Memory Report at c_bands before calling an iterative solver
           146 MiB given to the printing process from OS
            92 MiB allocation reported by mallinfo(arena+hblkhd)
        482847 MiB available memory on the node where the printing process lives
------------------
     ethr =  7.26E-09,  avg # of iterations =  7.3

     negative rho (up, down):  0.000E+00 5.602E-05

     total cpu time spent up to now is       82.0 secs

     total energy              =    -615.38867842 Ry
     estimated scf accuracy    <       0.00012506 Ry

     total magnetization       =     4.31 Bohr mag/cell
     absolute magnetization    =     4.37 Bohr mag/cell

     iteration # 42     ecut=    65.00 Ry     beta= 0.40
     Davidson diagonalization with overlap

---- Real-time Memory Report at c_bands before calling an iterative solver
           146 MiB given to the printing process from OS
            92 MiB allocation reported by mallinfo(arena+hblkhd)
        482846 MiB available memory on the node where the printing process lives
------------------
     ethr =  7.26E-09,  avg # of iterations =  5.4

     negative rho (up, down):  0.000E+00 5.037E-05

     total cpu time spent up to now is       84.2 secs

     total energy              =    -615.38871405 Ry
     estimated scf accuracy    <       0.00002475 Ry

     total magnetization       =     4.49 Bohr mag/cell
     absolute magnetization    =     4.55 Bohr mag/cell

     iteration # 43     ecut=    65.00 Ry     beta= 0.40
     Davidson diagonalization with overlap

---- Real-time Memory Report at c_bands before calling an iterative solver
           146 MiB given to the printing process from OS
            92 MiB allocation reported by mallinfo(arena+hblkhd)
        482846 MiB available memory on the node where the printing process lives
------------------
     ethr =  7.26E-09,  avg # of iterations =  6.0

     negative rho (up, down):  0.000E+00 5.234E-05

     total cpu time spent up to now is       86.6 secs

     total energy              =    -615.38913595 Ry
     estimated scf accuracy    <       0.00044686 Ry

     total magnetization       =     4.14 Bohr mag/cell
     absolute magnetization    =     4.20 Bohr mag/cell

     iteration # 44     ecut=    65.00 Ry     beta= 0.40
     Davidson diagonalization with overlap

---- Real-time Memory Report at c_bands before calling an iterative solver
           146 MiB given to the printing process from OS
            92 MiB allocation reported by mallinfo(arena+hblkhd)
        482846 MiB available memory on the node where the printing process lives
------------------
     ethr =  7.26E-09,  avg # of iterations =  4.7

     negative rho (up, down):  0.000E+00 5.244E-05

     total cpu time spent up to now is       88.7 secs

     total energy              =    -615.38925622 Ry
     estimated scf accuracy    <       0.00017625 Ry

     total magnetization       =     4.28 Bohr mag/cell
     absolute magnetization    =     4.34 Bohr mag/cell

     iteration # 45     ecut=    65.00 Ry     beta= 0.40
     Davidson diagonalization with overlap

---- Real-time Memory Report at c_bands before calling an iterative solver
           146 MiB given to the printing process from OS
            92 MiB allocation reported by mallinfo(arena+hblkhd)
        482843 MiB available memory on the node where the printing process lives
------------------
     ethr =  7.26E-09,  avg # of iterations =  1.0

     negative rho (up, down):  0.000E+00 5.367E-05

     total cpu time spent up to now is       90.1 secs

     total energy              =    -615.38907358 Ry
     estimated scf accuracy    <       0.00016837 Ry

     total magnetization       =     4.29 Bohr mag/cell
     absolute magnetization    =     4.35 Bohr mag/cell

     iteration # 46     ecut=    65.00 Ry     beta= 0.40
     Davidson diagonalization with overlap

---- Real-time Memory Report at c_bands before calling an iterative solver
           146 MiB given to the printing process from OS
            92 MiB allocation reported by mallinfo(arena+hblkhd)
        482843 MiB available memory on the node where the printing process lives
------------------
     ethr =  7.26E-09,  avg # of iterations =  4.4

     negative rho (up, down):  0.000E+00 5.605E-05

     total cpu time spent up to now is       92.1 secs

     total energy              =    -615.38877130 Ry
     estimated scf accuracy    <       0.00009039 Ry

     total magnetization       =     4.36 Bohr mag/cell
     absolute magnetization    =     4.42 Bohr mag/cell

     iteration # 47     ecut=    65.00 Ry     beta= 0.40
     Davidson diagonalization with overlap

---- Real-time Memory Report at c_bands before calling an iterative solver
           146 MiB given to the printing process from OS
            92 MiB allocation reported by mallinfo(arena+hblkhd)
        482842 MiB available memory on the node where the printing process lives
------------------
     ethr =  7.26E-09,  avg # of iterations =  5.2

     negative rho (up, down):  0.000E+00 5.559E-05

     total cpu time spent up to now is       94.2 secs

     total energy              =    -615.38895371 Ry
     estimated scf accuracy    <       0.00002557 Ry

     total magnetization       =     4.50 Bohr mag/cell
     absolute magnetization    =     4.56 Bohr mag/cell

     iteration # 48     ecut=    65.00 Ry     beta= 0.40
     Davidson diagonalization with overlap

---- Real-time Memory Report at c_bands before calling an iterative solver
           146 MiB given to the printing process from OS
            92 MiB allocation reported by mallinfo(arena+hblkhd)
        482842 MiB available memory on the node where the printing process lives
------------------
     ethr =  7.26E-09,  avg # of iterations =  2.0

     negative rho (up, down):  0.000E+00 6.162E-05

     total cpu time spent up to now is       95.8 secs

     total energy              =    -615.38780997 Ry
     estimated scf accuracy    <       0.00003135 Ry

     total magnetization       =     4.48 Bohr mag/cell
     absolute magnetization    =     4.53 Bohr mag/cell

     iteration # 49     ecut=    65.00 Ry     beta= 0.40
     Davidson diagonalization with overlap

---- Real-time Memory Report at c_bands before calling an iterative solver
           146 MiB given to the printing process from OS
            92 MiB allocation reported by mallinfo(arena+hblkhd)
        482841 MiB available memory on the node where the printing process lives
------------------
     ethr =  7.26E-09,  avg # of iterations =  6.1

     negative rho (up, down):  0.000E+00 6.716E-05

     total cpu time spent up to now is       98.2 secs

     total energy              =    -615.38798832 Ry
     estimated scf accuracy    <       0.00001078 Ry

     total magnetization       =     4.76 Bohr mag/cell
     absolute magnetization    =     4.82 Bohr mag/cell

     iteration # 50     ecut=    65.00 Ry     beta= 0.40
     Davidson diagonalization with overlap

---- Real-time Memory Report at c_bands before calling an iterative solver
           146 MiB given to the printing process from OS
            92 MiB allocation reported by mallinfo(arena+hblkhd)
        482839 MiB available memory on the node where the printing process lives
------------------
     ethr =  7.26E-09,  avg # of iterations =  6.1

     negative rho (up, down):  0.000E+00 5.704E-05

     total cpu time spent up to now is      100.6 secs

     total energy              =    -615.38743990 Ry
     estimated scf accuracy    <       0.00005560 Ry

     total magnetization       =     4.91 Bohr mag/cell
     absolute magnetization    =     4.97 Bohr mag/cell

     iteration # 51     ecut=    65.00 Ry     beta= 0.40
     Davidson diagonalization with overlap

---- Real-time Memory Report at c_bands before calling an iterative solver
           146 MiB given to the printing process from OS
            92 MiB allocation reported by mallinfo(arena+hblkhd)
        482839 MiB available memory on the node where the printing process lives
------------------
     ethr =  7.26E-09,  avg # of iterations =  6.8

     negative rho (up, down):  0.000E+00 3.132E-05

     total cpu time spent up to now is      103.2 secs

     total energy              =    -615.37780922 Ry
     estimated scf accuracy    <       0.00001536 Ry

     total magnetization       =     4.55 Bohr mag/cell
     absolute magnetization    =     4.61 Bohr mag/cell

     iteration # 52     ecut=    65.00 Ry     beta= 0.40
     Davidson diagonalization with overlap

---- Real-time Memory Report at c_bands before calling an iterative solver
           146 MiB given to the printing process from OS
            92 MiB allocation reported by mallinfo(arena+hblkhd)
        482839 MiB available memory on the node where the printing process lives
------------------
     ethr =  7.26E-09,  avg # of iterations =  8.5

     negative rho (up, down):  0.000E+00 3.267E-05

     total cpu time spent up to now is      106.3 secs

     total energy              =    -615.39732358 Ry
     estimated scf accuracy    <       0.08227267 Ry

     total magnetization       =     2.80 Bohr mag/cell
     absolute magnetization    =     4.03 Bohr mag/cell

     iteration # 53     ecut=    65.00 Ry     beta= 0.40
     Davidson diagonalization with overlap

---- Real-time Memory Report at c_bands before calling an iterative solver
           146 MiB given to the printing process from OS
            92 MiB allocation reported by mallinfo(arena+hblkhd)
        482839 MiB available memory on the node where the printing process lives
------------------
     ethr =  7.26E-09,  avg # of iterations =  4.4

     negative rho (up, down):  0.000E+00 4.589E-05

     total cpu time spent up to now is      108.2 secs

     total energy              =    -615.38444169 Ry
     estimated scf accuracy    <       0.06594043 Ry

     total magnetization       =     2.90 Bohr mag/cell
     absolute magnetization    =     4.01 Bohr mag/cell

     iteration # 54     ecut=    65.00 Ry     beta= 0.40
     Davidson diagonalization with overlap

---- Real-time Memory Report at c_bands before calling an iterative solver
           146 MiB given to the printing process from OS
            92 MiB allocation reported by mallinfo(arena+hblkhd)
        482838 MiB available memory on the node where the printing process lives
------------------
     ethr =  7.26E-09,  avg # of iterations =  7.4

     negative rho (up, down):  0.000E+00 3.997E-05

     total cpu time spent up to now is      110.9 secs

     total energy              =    -615.39175257 Ry
     estimated scf accuracy    <       0.00250805 Ry

     total magnetization       =     3.84 Bohr mag/cell
     absolute magnetization    =     3.99 Bohr mag/cell

     iteration # 55     ecut=    65.00 Ry     beta= 0.40
     Davidson diagonalization with overlap

---- Real-time Memory Report at c_bands before calling an iterative solver
           146 MiB given to the printing process from OS
            92 MiB allocation reported by mallinfo(arena+hblkhd)
        482838 MiB available memory on the node where the printing process lives
------------------
     ethr =  7.26E-09,  avg # of iterations =  5.9

     negative rho (up, down):  0.000E+00 4.766E-05

     total cpu time spent up to now is      113.3 secs

     total energy              =    -615.38808226 Ry
     estimated scf accuracy    <       0.01443051 Ry

     total magnetization       =     3.42 Bohr mag/cell
     absolute magnetization    =     3.95 Bohr mag/cell

     iteration # 56     ecut=    65.00 Ry     beta= 0.40
     Davidson diagonalization with overlap

---- Real-time Memory Report at c_bands before calling an iterative solver
           146 MiB given to the printing process from OS
            92 MiB allocation reported by mallinfo(arena+hblkhd)
        482838 MiB available memory on the node where the printing process lives
------------------
     ethr =  7.26E-09,  avg # of iterations =  7.0

     negative rho (up, down):  0.000E+00 4.299E-05

     total cpu time spent up to now is      115.9 secs

     total energy              =    -615.39089211 Ry
     estimated scf accuracy    <       0.00132593 Ry

     total magnetization       =     3.97 Bohr mag/cell
     absolute magnetization    =     4.05 Bohr mag/cell

     iteration # 57     ecut=    65.00 Ry     beta= 0.40
     Davidson diagonalization with overlap

---- Real-time Memory Report at c_bands before calling an iterative solver
           146 MiB given to the printing process from OS
            92 MiB allocation reported by mallinfo(arena+hblkhd)
        482837 MiB available memory on the node where the printing process lives
------------------
     ethr =  7.26E-09,  avg # of iterations =  5.9

     negative rho (up, down):  0.000E+00 4.923E-05

     total cpu time spent up to now is      118.3 secs

     total energy              =    -615.38849440 Ry
     estimated scf accuracy    <       0.00632447 Ry

     total magnetization       =     3.64 Bohr mag/cell
     absolute magnetization    =     3.95 Bohr mag/cell

     iteration # 58     ecut=    65.00 Ry     beta= 0.40
     Davidson diagonalization with overlap

---- Real-time Memory Report at c_bands before calling an iterative solver
           146 MiB given to the printing process from OS
            92 MiB allocation reported by mallinfo(arena+hblkhd)
        482837 MiB available memory on the node where the printing process lives
------------------
     ethr =  7.26E-09,  avg # of iterations =  6.0

     negative rho (up, down):  0.000E+00 4.474E-05

     total cpu time spent up to now is      120.7 secs

     total energy              =    -615.39034993 Ry
     estimated scf accuracy    <       0.00072864 Ry

     total magnetization       =     4.07 Bohr mag/cell
     absolute magnetization    =     4.14 Bohr mag/cell

     iteration # 59     ecut=    65.00 Ry     beta= 0.40
     Davidson diagonalization with overlap

---- Real-time Memory Report at c_bands before calling an iterative solver
           146 MiB given to the printing process from OS
            92 MiB allocation reported by mallinfo(arena+hblkhd)
        482837 MiB available memory on the node where the printing process lives
------------------
     ethr =  7.26E-09,  avg # of iterations =  5.9

     negative rho (up, down):  0.000E+00 6.076E-05

     total cpu time spent up to now is      123.0 secs

     total energy              =    -615.38067592 Ry
     estimated scf accuracy    <       0.00379766 Ry

     total magnetization       =     3.75 Bohr mag/cell
     absolute magnetization    =     3.96 Bohr mag/cell

     iteration # 60     ecut=    65.00 Ry     beta= 0.40
     Davidson diagonalization with overlap

[...]

     iteration #480     ecut=    65.00 Ry     beta= 0.40
     Davidson diagonalization with overlap

---- Real-time Memory Report at c_bands before calling an iterative solver
           148 MiB given to the printing process from OS
            92 MiB allocation reported by mallinfo(arena+hblkhd)
        482645 MiB available memory on the node where the printing process lives
------------------
     ethr =  7.26E-09,  avg # of iterations =  6.0

     negative rho (up, down):  0.000E+00 6.214E-05

     total cpu time spent up to now is      985.7 secs

     total energy              =    -615.38828458 Ry
     estimated scf accuracy    <       0.00008638 Ry

     total magnetization       =     4.93 Bohr mag/cell
     absolute magnetization    =     4.99 Bohr mag/cell

     iteration #481     ecut=    65.00 Ry     beta= 0.40
     Davidson diagonalization with overlap

---- Real-time Memory Report at c_bands before calling an iterative solver
           148 MiB given to the printing process from OS
            92 MiB allocation reported by mallinfo(arena+hblkhd)
        482644 MiB available memory on the node where the printing process lives
------------------
     ethr =  7.26E-09,  avg # of iterations =  6.0

     negative rho (up, down):  0.000E+00 6.060E-05

     total cpu time spent up to now is      988.1 secs

     total energy              =    -615.38869921 Ry
     estimated scf accuracy    <       0.00000932 Ry

     total magnetization       =     4.78 Bohr mag/cell
     absolute magnetization    =     4.83 Bohr mag/cell

     iteration #482     ecut=    65.00 Ry     beta= 0.40
     Davidson diagonalization with overlap

---- Real-time Memory Report at c_bands before calling an iterative solver
           148 MiB given to the printing process from OS
            92 MiB allocation reported by mallinfo(arena+hblkhd)
        482644 MiB available memory on the node where the printing process lives
------------------
     ethr =  7.26E-09,  avg # of iterations =  4.3

     negative rho (up, down):  0.000E+00 6.200E-05

     total cpu time spent up to now is      990.1 secs

     total energy              =    -615.38866552 Ry
     estimated scf accuracy    <       0.00000620 Ry

     total magnetization       =     4.72 Bohr mag/cell
     absolute magnetization    =     4.77 Bohr mag/cell

     iteration #483     ecut=    65.00 Ry     beta= 0.40
     Davidson diagonalization with overlap

---- Real-time Memory Report at c_bands before calling an iterative solver
           148 MiB given to the printing process from OS
            92 MiB allocation reported by mallinfo(arena+hblkhd)
        482644 MiB available memory on the node where the printing process lives
------------------
     ethr =  7.26E-09,  avg # of iterations =  4.0

     negative rho (up, down):  0.000E+00 6.111E-05

     total cpu time spent up to now is      992.0 secs

     total energy              =    -615.38871332 Ry
     estimated scf accuracy    <       0.00000733 Ry

     total magnetization       =     4.77 Bohr mag/cell
     absolute magnetization    =     4.83 Bohr mag/cell

     iteration #484     ecut=    65.00 Ry     beta= 0.40
     Davidson diagonalization with overlap

---- Real-time Memory Report at c_bands before calling an iterative solver
           148 MiB given to the printing process from OS
            92 MiB allocation reported by mallinfo(arena+hblkhd)
        482644 MiB available memory on the node where the printing process lives
------------------
     ethr =  7.26E-09,  avg # of iterations =  3.3

     negative rho (up, down):  0.000E+00 6.150E-05

     total cpu time spent up to now is      993.8 secs

     total energy              =    -615.38870928 Ry
     estimated scf accuracy    <       0.00000593 Ry

     total magnetization       =     4.74 Bohr mag/cell
     absolute magnetization    =     4.79 Bohr mag/cell

     iteration #485     ecut=    65.00 Ry     beta= 0.40
     Davidson diagonalization with overlap

---- Real-time Memory Report at c_bands before calling an iterative solver
           148 MiB given to the printing process from OS
            92 MiB allocation reported by mallinfo(arena+hblkhd)
        482643 MiB available memory on the node where the printing process lives
------------------
     ethr =  7.26E-09,  avg # of iterations =  2.0

     negative rho (up, down):  0.000E+00 5.902E-05

     total cpu time spent up to now is      995.3 secs

     total energy              =    -615.38867302 Ry
     estimated scf accuracy    <       0.00000747 Ry

     total magnetization       =     4.75 Bohr mag/cell
     absolute magnetization    =     4.81 Bohr mag/cell

     iteration #486     ecut=    65.00 Ry     beta= 0.40
     Davidson diagonalization with overlap

---- Real-time Memory Report at c_bands before calling an iterative solver
           148 MiB given to the printing process from OS
            92 MiB allocation reported by mallinfo(arena+hblkhd)
        482642 MiB available memory on the node where the printing process lives
------------------
     ethr =  7.26E-09,  avg # of iterations =  4.8

     negative rho (up, down):  0.000E+00 5.704E-05

     total cpu time spent up to now is      997.5 secs

     total energy              =    -615.38879126 Ry
     estimated scf accuracy    <       0.00000682 Ry

     total magnetization       =     4.65 Bohr mag/cell
     absolute magnetization    =     4.70 Bohr mag/cell

     iteration #487     ecut=    65.00 Ry     beta= 0.40
     Davidson diagonalization with overlap

---- Real-time Memory Report at c_bands before calling an iterative solver
           148 MiB given to the printing process from OS
            92 MiB allocation reported by mallinfo(arena+hblkhd)
        482642 MiB available memory on the node where the printing process lives
------------------
     ethr =  7.26E-09,  avg # of iterations =  4.8

     negative rho (up, down):  0.000E+00 6.123E-05

     total cpu time spent up to now is      999.6 secs

     total energy              =    -615.38833681 Ry
     estimated scf accuracy    <       0.00001529 Ry

     total magnetization       =     4.55 Bohr mag/cell
     absolute magnetization    =     4.61 Bohr mag/cell

     iteration #488     ecut=    65.00 Ry     beta= 0.40
     Davidson diagonalization with overlap

---- Real-time Memory Report at c_bands before calling an iterative solver
           148 MiB given to the printing process from OS
            92 MiB allocation reported by mallinfo(arena+hblkhd)
        482642 MiB available memory on the node where the printing process lives
------------------
     ethr =  7.26E-09,  avg # of iterations =  5.9

     negative rho (up, down):  0.000E+00 6.508E-05

     total cpu time spent up to now is     1001.8 secs

     total energy              =    -615.38831767 Ry
     estimated scf accuracy    <       0.00000621 Ry

     total magnetization       =     4.74 Bohr mag/cell
     absolute magnetization    =     4.80 Bohr mag/cell

     iteration #489     ecut=    65.00 Ry     beta= 0.40
     Davidson diagonalization with overlap

---- Real-time Memory Report at c_bands before calling an iterative solver
           148 MiB given to the printing process from OS
            92 MiB allocation reported by mallinfo(arena+hblkhd)
        482642 MiB available memory on the node where the printing process lives
------------------
     ethr =  7.26E-09,  avg # of iterations =  5.9

     negative rho (up, down):  0.000E+00 6.411E-05

     total cpu time spent up to now is     1004.1 secs

     total energy              =    -615.38859837 Ry
     estimated scf accuracy    <       0.00002590 Ry

     total magnetization       =     4.86 Bohr mag/cell
     absolute magnetization    =     4.92 Bohr mag/cell

     iteration #490     ecut=    65.00 Ry     beta= 0.40
     Davidson diagonalization with overlap

---- Real-time Memory Report at c_bands before calling an iterative solver
           148 MiB given to the printing process from OS
            92 MiB allocation reported by mallinfo(arena+hblkhd)
        482642 MiB available memory on the node where the printing process lives
------------------
     ethr =  7.26E-09,  avg # of iterations =  3.7

     negative rho (up, down):  0.000E+00 6.248E-05

     total cpu time spent up to now is     1005.9 secs

     total energy              =    -615.38864108 Ry
     estimated scf accuracy    <       0.00001743 Ry

     total magnetization       =     4.84 Bohr mag/cell
     absolute magnetization    =     4.89 Bohr mag/cell

     iteration #491     ecut=    65.00 Ry     beta= 0.40
     Davidson diagonalization with overlap

---- Real-time Memory Report at c_bands before calling an iterative solver
           148 MiB given to the printing process from OS
            92 MiB allocation reported by mallinfo(arena+hblkhd)
        482645 MiB available memory on the node where the printing process lives
------------------
     ethr =  7.26E-09,  avg # of iterations =  4.6

     negative rho (up, down):  0.000E+00 6.327E-05

     total cpu time spent up to now is     1007.9 secs

     total energy              =    -615.38864194 Ry
     estimated scf accuracy    <       0.00000863 Ry

     total magnetization       =     4.79 Bohr mag/cell
     absolute magnetization    =     4.84 Bohr mag/cell

     iteration #492     ecut=    65.00 Ry     beta= 0.40
     Davidson diagonalization with overlap

---- Real-time Memory Report at c_bands before calling an iterative solver
           148 MiB given to the printing process from OS
            92 MiB allocation reported by mallinfo(arena+hblkhd)
        482645 MiB available memory on the node where the printing process lives
------------------
     ethr =  7.26E-09,  avg # of iterations =  3.0

     negative rho (up, down):  0.000E+00 6.363E-05

     total cpu time spent up to now is     1009.7 secs

     total energy              =    -615.38863461 Ry
     estimated scf accuracy    <       0.00001169 Ry

     total magnetization       =     4.81 Bohr mag/cell
     absolute magnetization    =     4.87 Bohr mag/cell

     iteration #493     ecut=    65.00 Ry     beta= 0.40
     Davidson diagonalization with overlap

---- Real-time Memory Report at c_bands before calling an iterative solver
           148 MiB given to the printing process from OS
            92 MiB allocation reported by mallinfo(arena+hblkhd)
        482645 MiB available memory on the node where the printing process lives
------------------
     ethr =  7.26E-09,  avg # of iterations =  2.1

     negative rho (up, down):  0.000E+00 6.121E-05

     total cpu time spent up to now is     1011.3 secs

     total energy              =    -615.38863569 Ry
     estimated scf accuracy    <       0.00001322 Ry

     total magnetization       =     4.82 Bohr mag/cell
     absolute magnetization    =     4.88 Bohr mag/cell

     iteration #494     ecut=    65.00 Ry     beta= 0.40
     Davidson diagonalization with overlap

---- Real-time Memory Report at c_bands before calling an iterative solver
           148 MiB given to the printing process from OS
            92 MiB allocation reported by mallinfo(arena+hblkhd)
        482645 MiB available memory on the node where the printing process lives
------------------
     ethr =  7.26E-09,  avg # of iterations =  4.8

     negative rho (up, down):  0.000E+00 6.165E-05

     total cpu time spent up to now is     1013.4 secs

     total energy              =    -615.38870599 Ry
     estimated scf accuracy    <       0.00000599 Ry

     total magnetization       =     4.74 Bohr mag/cell
     absolute magnetization    =     4.80 Bohr mag/cell

     iteration #495     ecut=    65.00 Ry     beta= 0.40
     Davidson diagonalization with overlap

---- Real-time Memory Report at c_bands before calling an iterative solver
           148 MiB given to the printing process from OS
            92 MiB allocation reported by mallinfo(arena+hblkhd)
        482644 MiB available memory on the node where the printing process lives
------------------
     ethr =  7.26E-09,  avg # of iterations =  2.0

     negative rho (up, down):  0.000E+00 6.136E-05

     total cpu time spent up to now is     1014.9 secs

     total energy              =    -615.38871726 Ry
     estimated scf accuracy    <       0.00000701 Ry

     total magnetization       =     4.76 Bohr mag/cell
     absolute magnetization    =     4.81 Bohr mag/cell

     iteration #496     ecut=    65.00 Ry     beta= 0.40
     Davidson diagonalization with overlap

---- Real-time Memory Report at c_bands before calling an iterative solver
           148 MiB given to the printing process from OS
            92 MiB allocation reported by mallinfo(arena+hblkhd)
        482644 MiB available memory on the node where the printing process lives
------------------
     ethr =  7.26E-09,  avg # of iterations =  1.5

     negative rho (up, down):  0.000E+00 5.936E-05

     total cpu time spent up to now is     1016.4 secs

     total energy              =    -615.38870604 Ry
     estimated scf accuracy    <       0.00000637 Ry

     total magnetization       =     4.75 Bohr mag/cell
     absolute magnetization    =     4.80 Bohr mag/cell

     iteration #497     ecut=    65.00 Ry     beta= 0.40
     Davidson diagonalization with overlap

---- Real-time Memory Report at c_bands before calling an iterative solver
           148 MiB given to the printing process from OS
            92 MiB allocation reported by mallinfo(arena+hblkhd)
        482642 MiB available memory on the node where the printing process lives
------------------
     ethr =  7.26E-09,  avg # of iterations =  4.7

     negative rho (up, down):  0.000E+00 5.989E-05

     total cpu time spent up to now is     1018.5 secs

     total energy              =    -615.38875632 Ry
     estimated scf accuracy    <       0.00000634 Ry

     total magnetization       =     4.66 Bohr mag/cell
     absolute magnetization    =     4.72 Bohr mag/cell

     iteration #498     ecut=    65.00 Ry     beta= 0.40
     Davidson diagonalization with overlap

---- Real-time Memory Report at c_bands before calling an iterative solver
           148 MiB given to the printing process from OS
            92 MiB allocation reported by mallinfo(arena+hblkhd)
        482642 MiB available memory on the node where the printing process lives
------------------
     ethr =  7.26E-09,  avg # of iterations =  2.3

     negative rho (up, down):  0.000E+00 6.051E-05

     total cpu time spent up to now is     1020.1 secs

     total energy              =    -615.38873760 Ry
     estimated scf accuracy    <       0.00000654 Ry

     total magnetization       =     4.69 Bohr mag/cell
     absolute magnetization    =     4.74 Bohr mag/cell

     iteration #499     ecut=    65.00 Ry     beta= 0.40
     Davidson diagonalization with overlap

---- Real-time Memory Report at c_bands before calling an iterative solver
           148 MiB given to the printing process from OS
            92 MiB allocation reported by mallinfo(arena+hblkhd)
        482650 MiB available memory on the node where the printing process lives
------------------
     ethr =  7.26E-09,  avg # of iterations =  3.2

     negative rho (up, down):  0.000E+00 5.949E-05

     total cpu time spent up to now is     1021.8 secs

     total energy              =    -615.38875716 Ry
     estimated scf accuracy    <       0.00000610 Ry

     total magnetization       =     4.71 Bohr mag/cell
     absolute magnetization    =     4.77 Bohr mag/cell

     iteration #500     ecut=    65.00 Ry     beta= 0.40
     Davidson diagonalization with overlap

---- Real-time Memory Report at c_bands before calling an iterative solver
           148 MiB given to the printing process from OS
            92 MiB allocation reported by mallinfo(arena+hblkhd)
        482650 MiB available memory on the node where the printing process lives
------------------
     ethr =  7.26E-09,  avg # of iterations =  3.5

     negative rho (up, down):  0.000E+00 5.984E-05

     total cpu time spent up to now is     1023.6 secs

     total energy              =    -615.38876240 Ry
     estimated scf accuracy    <       0.00000649 Ry

     total magnetization       =     4.67 Bohr mag/cell
     absolute magnetization    =     4.73 Bohr mag/cell

     End of self-consistent calculation

     convergence NOT achieved after 500 iterations: stopping

     Writing config to output data dir ./out/aiida.save/ :
     XML data file, charge density

     init_run     :      1.88s CPU      1.99s WALL (       1 calls)
     electrons    :    966.13s CPU   1021.39s WALL (       1 calls)

     Called by init_run:
     wfcinit      :      0.42s CPU      0.46s WALL (       1 calls)
     wfcinit:atom :      0.01s CPU      0.01s WALL (       9 calls)
     wfcinit:wfcr :      0.38s CPU      0.41s WALL (       9 calls)
     potinit      :      0.69s CPU      0.73s WALL (       1 calls)
     hinit0       :      0.63s CPU      0.65s WALL (       1 calls)

     Called by electrons:
     c_bands      :    680.19s CPU    713.15s WALL (     500 calls)
     sum_band     :    130.29s CPU    138.29s WALL (     500 calls)
     v_of_rho     :    107.35s CPU    116.65s WALL (     501 calls)
     v_h          :      3.53s CPU      4.70s WALL (     501 calls)
     v_xc         :    103.81s CPU    111.95s WALL (     501 calls)
     newd         :     21.49s CPU     25.49s WALL (     501 calls)
     mix_rho      :      9.69s CPU     10.07s WALL (     500 calls)

     Called by c_bands:
     init_us_2    :      8.79s CPU      9.02s WALL (    9009 calls)
     init_us_2:cp :      8.75s CPU      8.99s WALL (    9009 calls)
     cegterg      :    637.92s CPU    668.47s WALL (    4500 calls)

     Called by sum_band:
     sum_band:wei :      0.59s CPU      0.60s WALL (     500 calls)
     sum_band:loo :     88.55s CPU     93.12s WALL (     500 calls)
     sum_band:buf :      1.71s CPU      1.75s WALL (    4500 calls)
     sum_band:ini :      4.39s CPU      4.41s WALL (    4500 calls)
     sum_band:cal :      8.41s CPU      8.53s WALL (    4500 calls)
     sum_band:bec :      0.15s CPU      0.16s WALL (    4500 calls)
     addusdens    :     28.08s CPU     28.85s WALL (     500 calls)
                                        0.00s GPU  (     500 calls)
     addusd:skk   :      0.22s CPU      0.22s WALL (    1000 calls)
                                        0.00s GPU  (    1000 calls)

     Called by *egterg:
     cdiaghg      :     54.43s CPU     54.82s WALL (   28672 calls)
     cegterg:over :     31.73s CPU     31.96s WALL (   24172 calls)
     cegterg:upda :     21.75s CPU     21.85s WALL (   24172 calls)
     cegterg:last :     34.76s CPU     34.84s WALL (   11640 calls)
     h_psi        :    458.14s CPU    487.32s WALL (   28681 calls)
     s_psi        :     21.37s CPU     21.77s WALL (   28681 calls)
     g_psi        :      1.31s CPU      1.34s WALL (   24172 calls)

     Called by h_psi:
     h_psi:calbec :     38.85s CPU     39.58s WALL (   28681 calls)
     vloc_psi     :    391.66s CPU    419.77s WALL (   28681 calls)
     add_vuspsi   :     24.43s CPU     24.68s WALL (   28681 calls)

     General routines
     calbec       :     47.16s CPU     48.01s WALL (   33181 calls)
     fft          :     32.54s CPU     36.51s WALL (   12523 calls)
     ffts         :      1.30s CPU      1.43s WALL (    2002 calls)
     fftw         :    333.41s CPU    361.15s WALL ( 1361304 calls)
     interpolate  :      5.20s CPU      5.54s WALL (    1002 calls)
     davcio       :      0.00s CPU      0.03s WALL (      27 calls)

     Parallel routines

     PWSCF        :  16m 8.21s CPU  17m 3.95s WALL


   This run was terminated on:  22:30:16  28Nov2023            

=------------------------------------------------------------------------------=
   JOB DONE.
=------------------------------------------------------------------------------=
