
     Program PWSCF v.7.2 starts on 19Dec2023 at 22:27: 8 
        Git branch: develop
        Last git commit: 9055681be6fc8200e6fffe76ed5fda34c2696339
        Last git commit date: Wed Nov 8 16:29:39 2023 +0000
        Last git commit subject: Merge branch 'calbec_fix' into 'develop'

     This program is part of the open-source Quantum ESPRESSO suite
     for quantum simulation of materials; please cite
         "P. Giannozzi et al., J. Phys.:Condens. Matter 21 395502 (2009);
         "P. Giannozzi et al., J. Phys.:Condens. Matter 29 465901 (2017);
         "P. Giannozzi et al., J. Chem. Phys. 152 154105 (2020);
          URL http://www.quantum-espresso.org", 
     in publications or presentations arising from this work. More details at
     http://www.quantum-espresso.org/quote

     Parallel version (MPI), running on    56 processors

     MPI processes distributed on     1 nodes
     492810 MiB available memory on the printing compute node when the environment starts

     Reading input from aiida.in

     Current dimensions of program PWSCF are:
     Max number of different atomic species (ntypx) = 10
     Max number of k-points (npk) =  40000
     Max angular momentum in pseudopotentials (lmaxx) =  4
     file Ba.pbesol-spn-kjpaw_psl.1.0.0.UPF: wavefunction(s)  5S 6S renormalized
     Message from routine setup:
     using ibrav=0 with symmetry is DISCOURAGED, use correct ibrav instead

     K-points division:     npool     =       7
     R & G space division:  proc/nbgrp/npool/nimage =       8
     Subspace diagonalization in iterative solution of the eigenvalue problem:
     a serial algorithm will be used


     Parallelization info
     --------------------
     sticks:   dense  smooth     PW     G-vecs:    dense   smooth      PW
     Min         533     266     82                16441     5811    1000
     Max         534     267     83                16442     5813    1001
     Sum        4267    2129    657               131535    46493    8001

     Using Slab Decomposition



     bravais-lattice index     =            0
     lattice parameter (alat)  =      14.9277  a.u.
     unit-cell volume          =     741.1755 (a.u.)^3
     number of atoms/cell      =            4
     number of atomic types    =            3
     number of electrons       =        32.00
     number of Kohn-Sham states=           20
     kinetic-energy cutoff     =      60.0000  Ry
     charge density cutoff     =     480.0000  Ry
     scf convergence threshold =      8.0E-10
     mixing beta               =       0.4000
     number of iterations used =            8  plain     mixing
     Exchange-correlation= PBESOL
                           (   1   4  10   8   0   0   0)

     celldm(1)=  14.927690  celldm(2)=   0.000000  celldm(3)=   0.000000
     celldm(4)=   0.000000  celldm(5)=   0.000000  celldm(6)=   0.000000

     crystal axes: (cart. coord. in units of alat)
               a(1) = (   0.259659   0.149914   0.953993 )  
               a(2) = (  -0.259659   0.149914   0.953993 )  
               a(3) = (   0.000000  -0.299829   0.953993 )  

     reciprocal axes: (cart. coord. in units 2 pi/alat)
               b(1) = (  1.925601  1.111746  0.349409 )  
               b(2) = ( -1.925601  1.111746  0.349409 )  
               b(3) = ( -0.000000 -2.223493  0.349409 )  


     PseudoPot. # 1 for Ba read from file:
     ./pseudo/Ba.pbesol-spn-kjpaw_psl.1.0.0.UPF
     MD5 check sum: f28c4a63d325c1a0d00fd3a4f19b8d73
     Pseudo is Projector augmented-wave + core cor, Zval = 10.0
     Generated using "atomic" code by A. Dal Corso  v.6.0 svn rev. 13079
     Shape of augmentation charge: PSQ
     Using radial grid of 1251 points,  7 beta functions with: 
                l(1) =   0
                l(2) =   0
                l(3) =   0
                l(4) =   1
                l(5) =   1
                l(6) =   2
                l(7) =   2
     Q(r) pseudized with 0 coefficients 


     PseudoPot. # 2 for Cl read from file:
     ./pseudo/cl_pbesol_v1.4.uspp.F.UPF
     MD5 check sum: ed6bbcf06f19043c0df9f6394706ff8f
     Pseudo is Ultrasoft + core correction, Zval =  7.0
     Generated by new atomic code, or converted to UPF format
     Using radial grid of  909 points,  6 beta functions with: 
                l(1) =   0
                l(2) =   0
                l(3) =   1
                l(4) =   1
                l(5) =   2
                l(6) =   2
     Q(r) pseudized with  8 coefficients,  rinner =    1.300   1.300   1.300
                                                       1.300   1.300

     PseudoPot. # 3 for N  read from file:
     ./pseudo/N.pbesol-theos.UPF
     MD5 check sum: 1b64827339d390a5a22afef3ff345c9d
     Pseudo is Ultrasoft + core correction, Zval =  5.0
     Generated using "atomic" code by A. Dal Corso  v.5.1
     Using radial grid of 1085 points,  4 beta functions with: 
                l(1) =   0
                l(2) =   0
                l(3) =   1
                l(4) =   1
     Q(r) pseudized with 0 coefficients 


     atomic species   valence    mass     pseudopotential
     Ba               10.00   137.32700     Ba( 1.00)
     Cl                7.00    35.45300     Cl( 1.00)
     N                 5.00    14.00670     N ( 1.00)

     Starting magnetic structure 
     atomic species   magnetization
     Ba              0.100
     Cl              0.100
     N               0.100

     12 Sym. Ops., with inversion, found


                                    s                        frac. trans.

      isym =  1     identity                                     

 cryst.   s( 1) = (     1          0          0      )
                  (     0          1          0      )
                  (     0          0          1      )

 cart.    s( 1) = (  1.0000000 -0.0000000  0.0000000 )
                  (  0.0000000  1.0000000 -0.0000000 )
                  (  0.0000000  0.0000000  1.0000000 )


      isym =  2     180 deg rotation - cart. axis [1,0,0]        

 cryst.   s( 2) = (     0         -1          0      )
                  (    -1          0          0      )
                  (     0          0         -1      )

 cart.    s( 2) = (  1.0000000  0.0000000 -0.0000000 )
                  ( -0.0000000 -1.0000000  0.0000000 )
                  ( -0.0000000 -0.0000000 -1.0000000 )


      isym =  3     120 deg rotation - cryst. axis [0,0,1]       

 cryst.   s( 3) = (     0          1          0      )
                  (     0          0          1      )
                  (     1          0          0      )

 cart.    s( 3) = ( -0.5000000 -0.8660254 -0.0000000 )
                  (  0.8660254 -0.5000000 -0.0000000 )
                  (  0.0000000 -0.0000000  1.0000000 )


      isym =  4     120 deg rotation - cryst. axis [0,0,-1]      

 cryst.   s( 4) = (     0          0          1      )
                  (     1          0          0      )
                  (     0          1          0      )

 cart.    s( 4) = ( -0.5000000  0.8660254  0.0000000 )
                  ( -0.8660254 -0.5000000 -0.0000000 )
                  (  0.0000000  0.0000000  1.0000000 )


      isym =  5     180 deg rotation - cryst. axis [0,1,0]       

 cryst.   s( 5) = (    -1          0          0      )
                  (     0          0         -1      )
                  (     0         -1          0      )

 cart.    s( 5) = ( -0.5000000 -0.8660254 -0.0000000 )
                  ( -0.8660254  0.5000000  0.0000000 )
                  ( -0.0000000 -0.0000000 -1.0000000 )


      isym =  6     180 deg rotation - cryst. axis [1,1,0]       

 cryst.   s( 6) = (     0          0         -1      )
                  (     0         -1          0      )
                  (    -1          0          0      )

 cart.    s( 6) = ( -0.5000000  0.8660254  0.0000000 )
                  (  0.8660254  0.5000000  0.0000000 )
                  ( -0.0000000  0.0000000 -1.0000000 )


      isym =  7     inversion                                    

 cryst.   s( 7) = (    -1          0          0      )
                  (     0         -1          0      )
                  (     0          0         -1      )

 cart.    s( 7) = ( -1.0000000  0.0000000 -0.0000000 )
                  ( -0.0000000 -1.0000000  0.0000000 )
                  ( -0.0000000 -0.0000000 -1.0000000 )


      isym =  8     inv. 180 deg rotation - cart. axis [1,0,0]   

 cryst.   s( 8) = (     0          1          0      )
                  (     1          0          0      )
                  (     0          0          1      )

 cart.    s( 8) = ( -1.0000000 -0.0000000  0.0000000 )
                  (  0.0000000  1.0000000 -0.0000000 )
                  (  0.0000000  0.0000000  1.0000000 )


      isym =  9     inv. 120 deg rotation - cryst. axis [0,0,1]  

 cryst.   s( 9) = (     0         -1          0      )
                  (     0          0         -1      )
                  (    -1          0          0      )

 cart.    s( 9) = (  0.5000000  0.8660254  0.0000000 )
                  ( -0.8660254  0.5000000  0.0000000 )
                  ( -0.0000000  0.0000000 -1.0000000 )


      isym = 10     inv. 120 deg rotation - cryst. axis [0,0,-1] 

 cryst.   s(10) = (     0          0         -1      )
                  (    -1          0          0      )
                  (     0         -1          0      )

 cart.    s(10) = (  0.5000000 -0.8660254 -0.0000000 )
                  (  0.8660254  0.5000000  0.0000000 )
                  ( -0.0000000 -0.0000000 -1.0000000 )


      isym = 11     inv. 180 deg rotation - cryst. axis [0,1,0]  

 cryst.   s(11) = (     1          0          0      )
                  (     0          0          1      )
                  (     0          1          0      )

 cart.    s(11) = (  0.5000000  0.8660254  0.0000000 )
                  (  0.8660254 -0.5000000 -0.0000000 )
                  (  0.0000000  0.0000000  1.0000000 )


      isym = 12     inv. 180 deg rotation - cryst. axis [1,1,0]  

 cryst.   s(12) = (     0          0          1      )
                  (     0          1          0      )
                  (     1          0          0      )

 cart.    s(12) = (  0.5000000 -0.8660254 -0.0000000 )
                  ( -0.8660254 -0.5000000 -0.0000000 )
                  (  0.0000000 -0.0000000  1.0000000 )


   Cartesian axes

     site n.     atom                  positions (alat units)
         1        Ba     tau(   1) = (  -0.0000000  -0.0000000   2.1985725  )
         2        Ba     tau(   2) = (  -0.0000000   0.2998286   2.5713930  )
         3        N      tau(   3) = (   0.2596592   0.1499143   2.3849827  )
         4        Cl     tau(   4) = (   0.0000000   0.0000000   0.0000000  )

   Crystallographic axes

     site n.     atom                  positions (cryst. coord.)
         1        Ba     tau(   1) = (  0.7682000  0.7682000  0.7682000  )
         2        Ba     tau(   2) = (  1.2318000  1.2318000  0.2318000  )
         3        N      tau(   3) = (  1.5000000  0.5000000  0.5000000  )
         4        Cl     tau(   4) = (  0.0000000  0.0000000  0.0000000  )

     number of k points=   189  Marzari-Vanderbilt smearing, width (Ry)=  0.0200
                       cart. coord. in units 2pi/alat
        k(    1) = (   0.0000000   0.0000000   0.0000000), wk =   0.0005787
        k(    2) = (  -0.0000000  -0.1852911   0.0291174), wk =   0.0034722
        k(    3) = (  -0.0000000  -0.3705821   0.0582348), wk =   0.0034722
        k(    4) = (  -0.0000000  -0.5558732   0.0873521), wk =   0.0034722
        k(    5) = (  -0.0000000  -0.7411642   0.1164695), wk =   0.0034722
        k(    6) = (  -0.0000000  -0.9264553   0.1455869), wk =   0.0034722
        k(    7) = (   0.0000000   1.1117463  -0.1747043), wk =   0.0017361
        k(    8) = (  -0.1604668  -0.0926455   0.0582348), wk =   0.0034722
        k(    9) = (  -0.1604668  -0.2779366   0.0873521), wk =   0.0069444
        k(   10) = (  -0.1604668  -0.4632276   0.1164695), wk =   0.0069444
        k(   11) = (  -0.1604668  -0.6485187   0.1455869), wk =   0.0069444
        k(   12) = (  -0.1604668  -0.8338097   0.1747043), wk =   0.0069444
        k(   13) = (  -0.1604668   1.2043918  -0.1455869), wk =   0.0069444
        k(   14) = (  -0.1604668   1.0191008  -0.1164695), wk =   0.0069444
        k(   15) = (  -0.1604668   0.8338097  -0.0873521), wk =   0.0069444
        k(   16) = (  -0.1604668   0.6485187  -0.0582348), wk =   0.0069444
        k(   17) = (  -0.1604668   0.4632276  -0.0291174), wk =   0.0069444
        k(   18) = (  -0.1604668   0.2779366   0.0000000), wk =   0.0034722
        k(   19) = (  -0.3209335  -0.1852911   0.1164695), wk =   0.0034722
        k(   20) = (  -0.3209335  -0.3705821   0.1455869), wk =   0.0069444
        k(   21) = (  -0.3209335  -0.5558732   0.1747043), wk =   0.0069444
        k(   22) = (  -0.3209335  -0.7411642   0.2038216), wk =   0.0069444
        k(   23) = (  -0.3209335   1.2970374  -0.1164695), wk =   0.0069444
        k(   24) = (  -0.3209335   1.1117463  -0.0873521), wk =   0.0069444
        k(   25) = (  -0.3209335   0.9264553  -0.0582348), wk =   0.0069444
        k(   26) = (  -0.3209335   0.7411642  -0.0291174), wk =   0.0069444
        k(   27) = (  -0.3209335   0.5558732   0.0000000), wk =   0.0034722
        k(   28) = (  -0.4814003  -0.2779366   0.1747043), wk =   0.0034722
        k(   29) = (  -0.4814003  -0.4632276   0.2038216), wk =   0.0069444
        k(   30) = (  -0.4814003  -0.6485187   0.2329390), wk =   0.0069444
        k(   31) = (  -0.4814003   1.3896829  -0.0873521), wk =   0.0069444
        k(   32) = (  -0.4814003   1.2043918  -0.0582348), wk =   0.0069444
        k(   33) = (  -0.4814003   1.0191008  -0.0291174), wk =   0.0069444
        k(   34) = (  -0.4814003   0.8338097   0.0000000), wk =   0.0034722
        k(   35) = (  -0.6418670  -0.3705821   0.2329390), wk =   0.0034722
        k(   36) = (  -0.6418670  -0.5558732   0.2620564), wk =   0.0069444
        k(   37) = (  -0.6418670   1.4823284  -0.0582348), wk =   0.0069444
        k(   38) = (  -0.6418670   1.2970374  -0.0291174), wk =   0.0069444
        k(   39) = (  -0.6418670   1.1117463   0.0000000), wk =   0.0034722
        k(   40) = (  -0.8023338  -0.4632276   0.2911738), wk =   0.0034722
        k(   41) = (  -0.8023338   1.5749739  -0.0291174), wk =   0.0069444
        k(   42) = (  -0.8023338   1.3896829   0.0000000), wk =   0.0034722
        k(   43) = (   0.9628005   0.5558732  -0.3494085), wk =   0.0017361
        k(   44) = (   0.0000000   0.0000000   0.0873521), wk =   0.0011574
        k(   45) = (   0.0000000  -0.1852911   0.1164695), wk =   0.0034722
        k(   46) = (   0.0000000  -0.3705821   0.1455869), wk =   0.0034722
        k(   47) = (   0.0000000  -0.5558732   0.1747043), wk =   0.0034722
        k(   48) = (  -0.0000000  -0.7411642   0.2038216), wk =   0.0034722
        k(   49) = (   0.0000000   1.2970374  -0.1164695), wk =   0.0034722
        k(   50) = (   0.0000000   1.1117463  -0.0873521), wk =   0.0034722
        k(   51) = (   0.0000000   0.9264553  -0.0582348), wk =   0.0034722
        k(   52) = (   0.0000000   0.7411642  -0.0291174), wk =   0.0034722
        k(   53) = (   0.0000000   0.5558732   0.0000000), wk =   0.0034722
        k(   54) = (   0.0000000   0.3705821   0.0291174), wk =   0.0034722
        k(   55) = (  -0.1604668  -0.0926455   0.1455869), wk =   0.0034722
        k(   56) = (  -0.1604668  -0.2779366   0.1747043), wk =   0.0069444
        k(   57) = (  -0.1604668  -0.4632276   0.2038216), wk =   0.0069444
        k(   58) = (  -0.1604668  -0.6485187   0.2329390), wk =   0.0069444
        k(   59) = (  -0.1604668   1.3896829  -0.0873521), wk =   0.0069444
        k(   60) = (  -0.1604668   1.2043918  -0.0582348), wk =   0.0069444
        k(   61) = (  -0.1604668   1.0191008  -0.0291174), wk =   0.0069444
        k(   62) = (  -0.1604668   0.8338097   0.0000000), wk =   0.0069444
        k(   63) = (  -0.1604668   0.6485187   0.0291174), wk =   0.0069444
        k(   64) = (  -0.1604668   0.4632276   0.0582348), wk =   0.0069444
        k(   65) = (  -0.3209335  -0.1852911   0.2038216), wk =   0.0034722
        k(   66) = (  -0.3209335  -0.3705821   0.2329390), wk =   0.0069444
        k(   67) = (  -0.3209335  -0.5558732   0.2620564), wk =   0.0069444
        k(   68) = (  -0.3209335   1.4823284  -0.0582348), wk =   0.0069444
        k(   69) = (  -0.3209335   1.2970374  -0.0291174), wk =   0.0069444
        k(   70) = (  -0.3209335   1.1117463   0.0000000), wk =   0.0069444
        k(   71) = (  -0.3209335   0.9264553   0.0291174), wk =   0.0069444
        k(   72) = (  -0.3209335   0.7411642   0.0582348), wk =   0.0069444
        k(   73) = (  -0.3209335   0.5558732   0.0873521), wk =   0.0069444
        k(   74) = (  -0.4814003  -0.2779366   0.2620564), wk =   0.0034722
        k(   75) = (  -0.4814003  -0.4632276   0.2911738), wk =   0.0069444
        k(   76) = (  -0.4814003   1.5749739  -0.0291174), wk =   0.0069444
        k(   77) = (  -0.4814003   1.3896829   0.0000000), wk =   0.0069444
        k(   78) = (  -0.4814003   1.2043918   0.0291174), wk =   0.0069444
        k(   79) = (  -0.4814003   1.0191008   0.0582348), wk =   0.0069444
        k(   80) = (  -0.4814003   0.8338097   0.0873521), wk =   0.0069444
        k(   81) = (  -0.4814003   0.6485187   0.1164695), wk =   0.0069444
        k(   82) = (  -0.6418670  -0.3705821   0.3202912), wk =   0.0034722
        k(   83) = (  -0.6418670   1.6676195   0.0000000), wk =   0.0069444
        k(   84) = (  -0.6418670   1.4823284   0.0291174), wk =   0.0069444
        k(   85) = (  -0.6418670   1.2970374   0.0582348), wk =   0.0069444
        k(   86) = (  -0.6418670   1.1117463   0.0873521), wk =   0.0069444
        k(   87) = (  -0.6418670   0.9264553   0.1164695), wk =   0.0069444
        k(   88) = (  -0.6418670   0.7411642   0.1455869), wk =   0.0069444
        k(   89) = (   1.1232673   0.6485187  -0.3202912), wk =   0.0034722
        k(   90) = (   1.1232673   0.4632276  -0.2911738), wk =   0.0069444
        k(   91) = (   1.1232673   0.2779366  -0.2620564), wk =   0.0069444
        k(   92) = (   1.1232673   0.0926455  -0.2329390), wk =   0.0069444
        k(   93) = (   1.1232673  -0.0926455  -0.2038216), wk =   0.0069444
        k(   94) = (   1.1232673  -0.2779366  -0.1747043), wk =   0.0034722
        k(   95) = (   0.9628005   0.5558732  -0.2620564), wk =   0.0034722
        k(   96) = (   0.9628005   0.3705821  -0.2329390), wk =   0.0069444
        k(   97) = (   0.9628005   0.1852911  -0.2038216), wk =   0.0069444
        k(   98) = (   0.9628005  -0.0000000  -0.1747043), wk =   0.0069444
        k(   99) = (   0.8023338   0.4632276  -0.2038216), wk =   0.0034722
        k(  100) = (   0.8023338   0.2779366  -0.1747043), wk =   0.0069444
        k(  101) = (   0.8023338   0.0926455  -0.1455869), wk =   0.0069444
        k(  102) = (   0.6418670   0.3705821  -0.1455869), wk =   0.0034722
        k(  103) = (   0.6418670   0.1852911  -0.1164695), wk =   0.0069444
        k(  104) = (   0.4814003   0.2779366  -0.0873521), wk =   0.0034722
        k(  105) = (   0.0000000   0.0000000   0.1747043), wk =   0.0011574
        k(  106) = (   0.0000000  -0.1852911   0.2038216), wk =   0.0034722
        k(  107) = (   0.0000000  -0.3705821   0.2329390), wk =   0.0034722
        k(  108) = (   0.0000000  -0.5558732   0.2620564), wk =   0.0034722
        k(  109) = (   0.0000000   1.4823284  -0.0582348), wk =   0.0034722
        k(  110) = (   0.0000000   1.2970374  -0.0291174), wk =   0.0034722
        k(  111) = (   0.0000000   1.1117463   0.0000000), wk =   0.0034722
        k(  112) = (   0.0000000   0.9264553   0.0291174), wk =   0.0034722
        k(  113) = (   0.0000000   0.7411642   0.0582348), wk =   0.0034722
        k(  114) = (  -0.1604668  -0.0926455   0.2329390), wk =   0.0034722
        k(  115) = (  -0.1604668  -0.2779366   0.2620564), wk =   0.0069444
        k(  116) = (  -0.1604668  -0.4632276   0.2911738), wk =   0.0069444
        k(  117) = (  -0.1604668   1.5749739  -0.0291174), wk =   0.0069444
        k(  118) = (  -0.1604668   1.3896829   0.0000000), wk =   0.0069444
        k(  119) = (  -0.1604668   1.2043918   0.0291174), wk =   0.0069444
        k(  120) = (  -0.1604668   1.0191008   0.0582348), wk =   0.0069444
        k(  121) = (  -0.1604668   0.8338097   0.0873521), wk =   0.0069444
        k(  122) = (  -0.3209335  -0.1852911   0.2911738), wk =   0.0034722
        k(  123) = (  -0.3209335  -0.3705821   0.3202912), wk =   0.0069444
        k(  124) = (  -0.3209335   1.6676195   0.0000000), wk =   0.0069444
        k(  125) = (  -0.3209335   1.4823284   0.0291174), wk =   0.0069444
        k(  126) = (  -0.3209335   1.2970374   0.0582348), wk =   0.0069444
        k(  127) = (  -0.3209335   1.1117463   0.0873521), wk =   0.0069444
        k(  128) = (  -0.3209335   0.9264553   0.1164695), wk =   0.0069444
        k(  129) = (  -0.4814003  -0.2779366   0.3494085), wk =   0.0034722
        k(  130) = (  -0.4814003   1.7602650   0.0291174), wk =   0.0069444
        k(  131) = (  -0.4814003   1.5749739   0.0582348), wk =   0.0069444
        k(  132) = (  -0.4814003   1.3896829   0.0873521), wk =   0.0069444
        k(  133) = (  -0.4814003   1.2043918   0.1164695), wk =   0.0069444
        k(  134) = (  -0.4814003   1.0191008   0.1455869), wk =   0.0069444
        k(  135) = (   1.2837341   0.7411642  -0.2911738), wk =   0.0034722
        k(  136) = (   1.2837341   0.5558732  -0.2620564), wk =   0.0069444
        k(  137) = (   1.2837341   0.3705821  -0.2329390), wk =   0.0069444
        k(  138) = (   1.2837341   0.1852911  -0.2038216), wk =   0.0069444
        k(  139) = (   1.2837341  -0.0000000  -0.1747043), wk =   0.0034722
        k(  140) = (   1.1232673   0.6485187  -0.2329390), wk =   0.0034722
        k(  141) = (   1.1232673   0.4632276  -0.2038216), wk =   0.0069444
        k(  142) = (   1.1232673   0.2779366  -0.1747043), wk =   0.0069444
        k(  143) = (   0.9628005   0.5558732  -0.1747043), wk =   0.0034722
        k(  144) = (   0.9628005   0.3705821  -0.1455869), wk =   0.0069444
        k(  145) = (   0.8023338   0.4632276  -0.1164695), wk =   0.0034722
        k(  146) = (   0.0000000   0.0000000   0.2620564), wk =   0.0011574
        k(  147) = (   0.0000000  -0.1852911   0.2911738), wk =   0.0034722
        k(  148) = (   0.0000000  -0.3705821   0.3202912), wk =   0.0034722
        k(  149) = (   0.0000000   1.6676195   0.0000000), wk =   0.0034722
        k(  150) = (   0.0000000   1.4823284   0.0291174), wk =   0.0034722
        k(  151) = (   0.0000000   1.2970374   0.0582348), wk =   0.0034722
        k(  152) = (   0.0000000   1.1117463   0.0873521), wk =   0.0034722
        k(  153) = (  -0.1604668  -0.0926455   0.3202912), wk =   0.0034722
        k(  154) = (  -0.1604668  -0.2779366   0.3494085), wk =   0.0069444
        k(  155) = (  -0.1604668   1.7602650   0.0291174), wk =   0.0069444
        k(  156) = (  -0.1604668   1.5749739   0.0582348), wk =   0.0069444
        k(  157) = (  -0.1604668   1.3896829   0.0873521), wk =   0.0069444
        k(  158) = (  -0.1604668   1.2043918   0.1164695), wk =   0.0069444
        k(  159) = (  -0.3209335  -0.1852911   0.3785259), wk =   0.0034722
        k(  160) = (  -0.3209335   1.8529105   0.0582348), wk =   0.0069444
        k(  161) = (  -0.3209335   1.6676195   0.0873521), wk =   0.0069444
        k(  162) = (  -0.3209335   1.4823284   0.1164695), wk =   0.0069444
        k(  163) = (  -0.3209335   1.2970374   0.1455869), wk =   0.0069444
        k(  164) = (   1.4442008   0.8338097  -0.2620564), wk =   0.0034722
        k(  165) = (   1.4442008   0.6485187  -0.2329390), wk =   0.0069444
        k(  166) = (   1.4442008   0.4632276  -0.2038216), wk =   0.0069444
        k(  167) = (   1.4442008   0.2779366  -0.1747043), wk =   0.0034722
        k(  168) = (   1.2837341   0.7411642  -0.2038216), wk =   0.0034722
        k(  169) = (   1.2837341   0.5558732  -0.1747043), wk =   0.0069444
        k(  170) = (   1.1232673   0.6485187  -0.1455869), wk =   0.0034722
        k(  171) = (   0.0000000   0.0000000   0.3494085), wk =   0.0011574
        k(  172) = (   0.0000000  -0.1852911   0.3785259), wk =   0.0034722
        k(  173) = (   0.0000000   1.8529105   0.0582348), wk =   0.0034722
        k(  174) = (   0.0000000   1.6676195   0.0873521), wk =   0.0034722
        k(  175) = (   0.0000000   1.4823284   0.1164695), wk =   0.0034722
        k(  176) = (  -0.1604668  -0.0926455   0.4076433), wk =   0.0034722
        k(  177) = (  -0.1604668   1.9455560   0.0873521), wk =   0.0069444
        k(  178) = (  -0.1604668   1.7602650   0.1164695), wk =   0.0069444
        k(  179) = (  -0.1604668   1.5749739   0.1455869), wk =   0.0069444
        k(  180) = (   1.6046676   0.9264553  -0.2329390), wk =   0.0034722
        k(  181) = (   1.6046676   0.7411642  -0.2038216), wk =   0.0069444
        k(  182) = (   1.6046676   0.5558732  -0.1747043), wk =   0.0034722
        k(  183) = (   1.4442008   0.8338097  -0.1747043), wk =   0.0034722
        k(  184) = (   0.0000000  -0.0000000   0.4367607), wk =   0.0011574
        k(  185) = (   0.0000000   2.0382016   0.1164695), wk =   0.0034722
        k(  186) = (   0.0000000   1.8529105   0.1455869), wk =   0.0034722
        k(  187) = (   1.7651343   1.0191008  -0.2038216), wk =   0.0034722
        k(  188) = (   1.7651343   0.8338097  -0.1747043), wk =   0.0034722
        k(  189) = (  -0.0000000   0.0000000  -0.5241128), wk =   0.0005787

                       cryst. coord.
        k(    1) = (   0.0000000   0.0000000   0.0000000), wk =   0.0005787
        k(    2) = (  -0.0000000  -0.0000000   0.0833333), wk =   0.0034722
        k(    3) = (  -0.0000000  -0.0000000   0.1666667), wk =   0.0034722
        k(    4) = (  -0.0000000  -0.0000000   0.2500000), wk =   0.0034722
        k(    5) = (  -0.0000000  -0.0000000   0.3333333), wk =   0.0034722
        k(    6) = (   0.0000000   0.0000000   0.4166667), wk =   0.0034722
        k(    7) = (   0.0000000   0.0000000  -0.5000000), wk =   0.0017361
        k(    8) = (  -0.0000000   0.0833333   0.0833333), wk =   0.0034722
        k(    9) = (   0.0000000   0.0833333   0.1666667), wk =   0.0069444
        k(   10) = (   0.0000000   0.0833333   0.2500000), wk =   0.0069444
        k(   11) = (  -0.0000000   0.0833333   0.3333333), wk =   0.0069444
        k(   12) = (  -0.0000000   0.0833333   0.4166667), wk =   0.0069444
        k(   13) = (   0.0000000   0.0833333  -0.5000000), wk =   0.0069444
        k(   14) = (   0.0000000   0.0833333  -0.4166667), wk =   0.0069444
        k(   15) = (  -0.0000000   0.0833333  -0.3333333), wk =   0.0069444
        k(   16) = (  -0.0000000   0.0833333  -0.2500000), wk =   0.0069444
        k(   17) = (   0.0000000   0.0833333  -0.1666667), wk =   0.0069444
        k(   18) = (  -0.0000000   0.0833333  -0.0833333), wk =   0.0034722
        k(   19) = (  -0.0000000   0.1666667   0.1666667), wk =   0.0034722
        k(   20) = (  -0.0000000   0.1666667   0.2500000), wk =   0.0069444
        k(   21) = (   0.0000000   0.1666667   0.3333333), wk =   0.0069444
        k(   22) = (  -0.0000000   0.1666667   0.4166667), wk =   0.0069444
        k(   23) = (  -0.0000000   0.1666667  -0.5000000), wk =   0.0069444
        k(   24) = (   0.0000000   0.1666667  -0.4166667), wk =   0.0069444
        k(   25) = (   0.0000000   0.1666667  -0.3333333), wk =   0.0069444
        k(   26) = (   0.0000000   0.1666667  -0.2500000), wk =   0.0069444
        k(   27) = (   0.0000000   0.1666667  -0.1666667), wk =   0.0034722
        k(   28) = (   0.0000000   0.2500000   0.2500000), wk =   0.0034722
        k(   29) = (  -0.0000000   0.2500000   0.3333333), wk =   0.0069444
        k(   30) = (  -0.0000000   0.2500000   0.4166667), wk =   0.0069444
        k(   31) = (   0.0000000   0.2500000  -0.5000000), wk =   0.0069444
        k(   32) = (   0.0000000   0.2500000  -0.4166667), wk =   0.0069444
        k(   33) = (   0.0000000   0.2500000  -0.3333333), wk =   0.0069444
        k(   34) = (   0.0000000   0.2500000  -0.2500000), wk =   0.0034722
        k(   35) = (  -0.0000000   0.3333333   0.3333333), wk =   0.0034722
        k(   36) = (  -0.0000000   0.3333333   0.4166667), wk =   0.0069444
        k(   37) = (   0.0000000   0.3333333  -0.5000000), wk =   0.0069444
        k(   38) = (   0.0000000   0.3333333  -0.4166667), wk =   0.0069444
        k(   39) = (   0.0000000   0.3333333  -0.3333333), wk =   0.0034722
        k(   40) = (   0.0000000   0.4166667   0.4166667), wk =   0.0034722
        k(   41) = (   0.0000000   0.4166667  -0.5000000), wk =   0.0069444
        k(   42) = (   0.0000000   0.4166667  -0.4166667), wk =   0.0034722
        k(   43) = (  -0.0000000  -0.5000000  -0.5000000), wk =   0.0017361
        k(   44) = (   0.0833333   0.0833333   0.0833333), wk =   0.0011574
        k(   45) = (   0.0833333   0.0833333   0.1666667), wk =   0.0034722
        k(   46) = (   0.0833333   0.0833333   0.2500000), wk =   0.0034722
        k(   47) = (   0.0833333   0.0833333   0.3333333), wk =   0.0034722
        k(   48) = (   0.0833333   0.0833333   0.4166667), wk =   0.0034722
        k(   49) = (   0.0833333   0.0833333  -0.5000000), wk =   0.0034722
        k(   50) = (   0.0833333   0.0833333  -0.4166667), wk =   0.0034722
        k(   51) = (   0.0833333   0.0833333  -0.3333333), wk =   0.0034722
        k(   52) = (   0.0833333   0.0833333  -0.2500000), wk =   0.0034722
        k(   53) = (   0.0833333   0.0833333  -0.1666667), wk =   0.0034722
        k(   54) = (   0.0833333   0.0833333  -0.0833333), wk =   0.0034722
        k(   55) = (   0.0833333   0.1666667   0.1666667), wk =   0.0034722
        k(   56) = (   0.0833333   0.1666667   0.2500000), wk =   0.0069444
        k(   57) = (   0.0833333   0.1666667   0.3333333), wk =   0.0069444
        k(   58) = (   0.0833333   0.1666667   0.4166667), wk =   0.0069444
        k(   59) = (   0.0833333   0.1666667  -0.5000000), wk =   0.0069444
        k(   60) = (   0.0833333   0.1666667  -0.4166667), wk =   0.0069444
        k(   61) = (   0.0833333   0.1666667  -0.3333333), wk =   0.0069444
        k(   62) = (   0.0833333   0.1666667  -0.2500000), wk =   0.0069444
        k(   63) = (   0.0833333   0.1666667  -0.1666667), wk =   0.0069444
        k(   64) = (   0.0833333   0.1666667  -0.0833333), wk =   0.0069444
        k(   65) = (   0.0833333   0.2500000   0.2500000), wk =   0.0034722
        k(   66) = (   0.0833333   0.2500000   0.3333333), wk =   0.0069444
        k(   67) = (   0.0833333   0.2500000   0.4166667), wk =   0.0069444
        k(   68) = (   0.0833333   0.2500000  -0.5000000), wk =   0.0069444
        k(   69) = (   0.0833333   0.2500000  -0.4166667), wk =   0.0069444
        k(   70) = (   0.0833333   0.2500000  -0.3333333), wk =   0.0069444
        k(   71) = (   0.0833333   0.2500000  -0.2500000), wk =   0.0069444
        k(   72) = (   0.0833333   0.2500000  -0.1666667), wk =   0.0069444
        k(   73) = (   0.0833333   0.2500000  -0.0833333), wk =   0.0069444
        k(   74) = (   0.0833333   0.3333333   0.3333333), wk =   0.0034722
        k(   75) = (   0.0833333   0.3333333   0.4166667), wk =   0.0069444
        k(   76) = (   0.0833333   0.3333333  -0.5000000), wk =   0.0069444
        k(   77) = (   0.0833333   0.3333333  -0.4166667), wk =   0.0069444
        k(   78) = (   0.0833333   0.3333333  -0.3333333), wk =   0.0069444
        k(   79) = (   0.0833333   0.3333333  -0.2500000), wk =   0.0069444
        k(   80) = (   0.0833333   0.3333333  -0.1666667), wk =   0.0069444
        k(   81) = (   0.0833333   0.3333333  -0.0833333), wk =   0.0069444
        k(   82) = (   0.0833333   0.4166667   0.4166667), wk =   0.0034722
        k(   83) = (   0.0833333   0.4166667  -0.5000000), wk =   0.0069444
        k(   84) = (   0.0833333   0.4166667  -0.4166667), wk =   0.0069444
        k(   85) = (   0.0833333   0.4166667  -0.3333333), wk =   0.0069444
        k(   86) = (   0.0833333   0.4166667  -0.2500000), wk =   0.0069444
        k(   87) = (   0.0833333   0.4166667  -0.1666667), wk =   0.0069444
        k(   88) = (   0.0833333   0.4166667  -0.0833333), wk =   0.0069444
        k(   89) = (   0.0833333  -0.5000000  -0.5000000), wk =   0.0034722
        k(   90) = (   0.0833333  -0.5000000  -0.4166667), wk =   0.0069444
        k(   91) = (   0.0833333  -0.5000000  -0.3333333), wk =   0.0069444
        k(   92) = (   0.0833333  -0.5000000  -0.2500000), wk =   0.0069444
        k(   93) = (   0.0833333  -0.5000000  -0.1666667), wk =   0.0069444
        k(   94) = (   0.0833333  -0.5000000  -0.0833333), wk =   0.0034722
        k(   95) = (   0.0833333  -0.4166667  -0.4166667), wk =   0.0034722
        k(   96) = (   0.0833333  -0.4166667  -0.3333333), wk =   0.0069444
        k(   97) = (   0.0833333  -0.4166667  -0.2500000), wk =   0.0069444
        k(   98) = (   0.0833333  -0.4166667  -0.1666667), wk =   0.0069444
        k(   99) = (   0.0833333  -0.3333333  -0.3333333), wk =   0.0034722
        k(  100) = (   0.0833333  -0.3333333  -0.2500000), wk =   0.0069444
        k(  101) = (   0.0833333  -0.3333333  -0.1666667), wk =   0.0069444
        k(  102) = (   0.0833333  -0.2500000  -0.2500000), wk =   0.0034722
        k(  103) = (   0.0833333  -0.2500000  -0.1666667), wk =   0.0069444
        k(  104) = (   0.0833333  -0.1666667  -0.1666667), wk =   0.0034722
        k(  105) = (   0.1666667   0.1666667   0.1666667), wk =   0.0011574
        k(  106) = (   0.1666667   0.1666667   0.2500000), wk =   0.0034722
        k(  107) = (   0.1666667   0.1666667   0.3333333), wk =   0.0034722
        k(  108) = (   0.1666667   0.1666667   0.4166667), wk =   0.0034722
        k(  109) = (   0.1666667   0.1666667  -0.5000000), wk =   0.0034722
        k(  110) = (   0.1666667   0.1666667  -0.4166667), wk =   0.0034722
        k(  111) = (   0.1666667   0.1666667  -0.3333333), wk =   0.0034722
        k(  112) = (   0.1666667   0.1666667  -0.2500000), wk =   0.0034722
        k(  113) = (   0.1666667   0.1666667  -0.1666667), wk =   0.0034722
        k(  114) = (   0.1666667   0.2500000   0.2500000), wk =   0.0034722
        k(  115) = (   0.1666667   0.2500000   0.3333333), wk =   0.0069444
        k(  116) = (   0.1666667   0.2500000   0.4166667), wk =   0.0069444
        k(  117) = (   0.1666667   0.2500000  -0.5000000), wk =   0.0069444
        k(  118) = (   0.1666667   0.2500000  -0.4166667), wk =   0.0069444
        k(  119) = (   0.1666667   0.2500000  -0.3333333), wk =   0.0069444
        k(  120) = (   0.1666667   0.2500000  -0.2500000), wk =   0.0069444
        k(  121) = (   0.1666667   0.2500000  -0.1666667), wk =   0.0069444
        k(  122) = (   0.1666667   0.3333333   0.3333333), wk =   0.0034722
        k(  123) = (   0.1666667   0.3333333   0.4166667), wk =   0.0069444
        k(  124) = (   0.1666667   0.3333333  -0.5000000), wk =   0.0069444
        k(  125) = (   0.1666667   0.3333333  -0.4166667), wk =   0.0069444
        k(  126) = (   0.1666667   0.3333333  -0.3333333), wk =   0.0069444
        k(  127) = (   0.1666667   0.3333333  -0.2500000), wk =   0.0069444
        k(  128) = (   0.1666667   0.3333333  -0.1666667), wk =   0.0069444
        k(  129) = (   0.1666667   0.4166667   0.4166667), wk =   0.0034722
        k(  130) = (   0.1666667   0.4166667  -0.5000000), wk =   0.0069444
        k(  131) = (   0.1666667   0.4166667  -0.4166667), wk =   0.0069444
        k(  132) = (   0.1666667   0.4166667  -0.3333333), wk =   0.0069444
        k(  133) = (   0.1666667   0.4166667  -0.2500000), wk =   0.0069444
        k(  134) = (   0.1666667   0.4166667  -0.1666667), wk =   0.0069444
        k(  135) = (   0.1666667  -0.5000000  -0.5000000), wk =   0.0034722
        k(  136) = (   0.1666667  -0.5000000  -0.4166667), wk =   0.0069444
        k(  137) = (   0.1666667  -0.5000000  -0.3333333), wk =   0.0069444
        k(  138) = (   0.1666667  -0.5000000  -0.2500000), wk =   0.0069444
        k(  139) = (   0.1666667  -0.5000000  -0.1666667), wk =   0.0034722
        k(  140) = (   0.1666667  -0.4166667  -0.4166667), wk =   0.0034722
        k(  141) = (   0.1666667  -0.4166667  -0.3333333), wk =   0.0069444
        k(  142) = (   0.1666667  -0.4166667  -0.2500000), wk =   0.0069444
        k(  143) = (   0.1666667  -0.3333333  -0.3333333), wk =   0.0034722
        k(  144) = (   0.1666667  -0.3333333  -0.2500000), wk =   0.0069444
        k(  145) = (   0.1666667  -0.2500000  -0.2500000), wk =   0.0034722
        k(  146) = (   0.2500000   0.2500000   0.2500000), wk =   0.0011574
        k(  147) = (   0.2500000   0.2500000   0.3333333), wk =   0.0034722
        k(  148) = (   0.2500000   0.2500000   0.4166667), wk =   0.0034722
        k(  149) = (   0.2500000   0.2500000  -0.5000000), wk =   0.0034722
        k(  150) = (   0.2500000   0.2500000  -0.4166667), wk =   0.0034722
        k(  151) = (   0.2500000   0.2500000  -0.3333333), wk =   0.0034722
        k(  152) = (   0.2500000   0.2500000  -0.2500000), wk =   0.0034722
        k(  153) = (   0.2500000   0.3333333   0.3333333), wk =   0.0034722
        k(  154) = (   0.2500000   0.3333333   0.4166667), wk =   0.0069444
        k(  155) = (   0.2500000   0.3333333  -0.5000000), wk =   0.0069444
        k(  156) = (   0.2500000   0.3333333  -0.4166667), wk =   0.0069444
        k(  157) = (   0.2500000   0.3333333  -0.3333333), wk =   0.0069444
        k(  158) = (   0.2500000   0.3333333  -0.2500000), wk =   0.0069444
        k(  159) = (   0.2500000   0.4166667   0.4166667), wk =   0.0034722
        k(  160) = (   0.2500000   0.4166667  -0.5000000), wk =   0.0069444
        k(  161) = (   0.2500000   0.4166667  -0.4166667), wk =   0.0069444
        k(  162) = (   0.2500000   0.4166667  -0.3333333), wk =   0.0069444
        k(  163) = (   0.2500000   0.4166667  -0.2500000), wk =   0.0069444
        k(  164) = (   0.2500000  -0.5000000  -0.5000000), wk =   0.0034722
        k(  165) = (   0.2500000  -0.5000000  -0.4166667), wk =   0.0069444
        k(  166) = (   0.2500000  -0.5000000  -0.3333333), wk =   0.0069444
        k(  167) = (   0.2500000  -0.5000000  -0.2500000), wk =   0.0034722
        k(  168) = (   0.2500000  -0.4166667  -0.4166667), wk =   0.0034722
        k(  169) = (   0.2500000  -0.4166667  -0.3333333), wk =   0.0069444
        k(  170) = (   0.2500000  -0.3333333  -0.3333333), wk =   0.0034722
        k(  171) = (   0.3333333   0.3333333   0.3333333), wk =   0.0011574
        k(  172) = (   0.3333333   0.3333333   0.4166667), wk =   0.0034722
        k(  173) = (   0.3333333   0.3333333  -0.5000000), wk =   0.0034722
        k(  174) = (   0.3333333   0.3333333  -0.4166667), wk =   0.0034722
        k(  175) = (   0.3333333   0.3333333  -0.3333333), wk =   0.0034722
        k(  176) = (   0.3333333   0.4166667   0.4166667), wk =   0.0034722
        k(  177) = (   0.3333333   0.4166667  -0.5000000), wk =   0.0069444
        k(  178) = (   0.3333333   0.4166667  -0.4166667), wk =   0.0069444
        k(  179) = (   0.3333333   0.4166667  -0.3333333), wk =   0.0069444
        k(  180) = (   0.3333333  -0.5000000  -0.5000000), wk =   0.0034722
        k(  181) = (   0.3333333  -0.5000000  -0.4166667), wk =   0.0069444
        k(  182) = (   0.3333333  -0.5000000  -0.3333333), wk =   0.0034722
        k(  183) = (   0.3333333  -0.4166667  -0.4166667), wk =   0.0034722
        k(  184) = (   0.4166667   0.4166667   0.4166667), wk =   0.0011574
        k(  185) = (   0.4166667   0.4166667  -0.5000000), wk =   0.0034722
        k(  186) = (   0.4166667   0.4166667  -0.4166667), wk =   0.0034722
        k(  187) = (   0.4166667  -0.5000000  -0.5000000), wk =   0.0034722
        k(  188) = (   0.4166667  -0.5000000  -0.4166667), wk =   0.0034722
        k(  189) = (  -0.5000000  -0.5000000  -0.5000000), wk =   0.0005787

     Dense  grid:   131535 G-vectors     FFT dimensions: ( 108, 108, 108)

     Smooth grid:    46493 G-vectors     FFT dimensions: (  75,  75,  75)

     Dynamical RAM for                 wfc:       0.22 MB

     Dynamical RAM for     wfc (w. buffer):      12.20 MB

     Dynamical RAM for           str. fact:       0.75 MB

     Dynamical RAM for           local pot:       0.00 MB

     Dynamical RAM for          nlocal pot:       0.71 MB

     Dynamical RAM for                qrad:       7.03 MB

     Dynamical RAM for          rho,v,vnew:       8.98 MB

     Dynamical RAM for               rhoin:       2.99 MB

     Dynamical RAM for            rho*nmix:       8.03 MB

     Dynamical RAM for           G-vectors:       0.99 MB

     Dynamical RAM for          h,s,v(r/c):       0.07 MB

     Dynamical RAM for          <psi|beta>:       0.02 MB

     Dynamical RAM for                 psi:       0.44 MB

     Dynamical RAM for                hpsi:       0.44 MB

     Dynamical RAM for                spsi:       0.44 MB

     Dynamical RAM for      wfcinit/wfcrot:       0.45 MB

     Dynamical RAM for           addusdens:       7.88 MB

     Dynamical RAM for          addusforce:       7.76 MB

     Dynamical RAM for         addusstress:       8.15 MB

     Estimated static dynamical RAM per process >      42.13 MB

     Estimated max dynamical RAM per process >      58.31 MB

     Estimated total dynamical RAM >       2.81 GB
     Generating pointlists ...
     new r_m :   0.1456 (alat units)  2.1740 (a.u.) for type    1
     new r_m :   0.1722 (alat units)  2.5711 (a.u.) for type    2
     new r_m :   0.1456 (alat units)  2.1740 (a.u.) for type    3

     Initial potential from superposition of free atoms

     starting charge      31.9686, renormalised to      32.0000

     negative rho (up, down):  8.162E-03 6.678E-03
     Starting wfcs are   18 randomized atomic wfcs +    2 random wfcs
     Checking if some PAW data can be deallocated... 
       PAW data deallocated on   28 nodes for type:  1

     total cpu time spent up to now is        3.6 secs

     per-process dynamical memory:    56.6 Mb

     Self-consistent Calculation

     iteration #  1     ecut=    60.00 Ry     beta= 0.40
     Davidson diagonalization with overlap

---- Real-time Memory Report at c_bands before calling an iterative solver
           103 MiB given to the printing process from OS
            57 MiB allocation reported by mallinfo(arena+hblkhd)
        488798 MiB available memory on the node where the printing process lives
------------------
     ethr =  1.00E-02,  avg # of iterations =  7.0

     negative rho (up, down):  3.229E-01 2.717E-02

     total cpu time spent up to now is       10.7 secs

     total energy              =    -912.57564145 Ry
     estimated scf accuracy    <       3.52773882 Ry

     total magnetization       =     0.00 Bohr mag/cell
     absolute magnetization    =     4.13 Bohr mag/cell

     iteration #  2     ecut=    60.00 Ry     beta= 0.40
     Davidson diagonalization with overlap

---- Real-time Memory Report at c_bands before calling an iterative solver
           130 MiB given to the printing process from OS
            68 MiB allocation reported by mallinfo(arena+hblkhd)
        487568 MiB available memory on the node where the printing process lives
------------------
     ethr =  1.00E-02,  avg # of iterations =  3.6

     negative rho (up, down):  4.918E-01 2.376E-02

     total cpu time spent up to now is       16.0 secs

     total energy              =    -912.72382573 Ry
     estimated scf accuracy    <       3.24684565 Ry

     total magnetization       =     0.48 Bohr mag/cell
     absolute magnetization    =     4.03 Bohr mag/cell

     iteration #  3     ecut=    60.00 Ry     beta= 0.40
     Davidson diagonalization with overlap

---- Real-time Memory Report at c_bands before calling an iterative solver
           131 MiB given to the printing process from OS
            67 MiB allocation reported by mallinfo(arena+hblkhd)
        487588 MiB available memory on the node where the printing process lives
------------------
     ethr =  1.00E-02,  avg # of iterations =  2.8

     negative rho (up, down):  6.580E-02 2.167E-02

     total cpu time spent up to now is       21.2 secs

     total energy              =    -913.29280437 Ry
     estimated scf accuracy    <       3.62139586 Ry

     total magnetization       =     0.00 Bohr mag/cell
     absolute magnetization    =     6.14 Bohr mag/cell

     iteration #  4     ecut=    60.00 Ry     beta= 0.40
     Davidson diagonalization with overlap

---- Real-time Memory Report at c_bands before calling an iterative solver
           133 MiB given to the printing process from OS
            68 MiB allocation reported by mallinfo(arena+hblkhd)
        487575 MiB available memory on the node where the printing process lives
------------------
     ethr =  1.00E-02,  avg # of iterations =  1.0

     negative rho (up, down):  1.599E+00 7.282E-03

     total cpu time spent up to now is       25.7 secs

     total energy              =    -913.10578104 Ry
     estimated scf accuracy    <       5.65921725 Ry

     total magnetization       =     0.00 Bohr mag/cell
     absolute magnetization    =     5.65 Bohr mag/cell

     iteration #  5     ecut=    60.00 Ry     beta= 0.40
     Davidson diagonalization with overlap

---- Real-time Memory Report at c_bands before calling an iterative solver
           133 MiB given to the printing process from OS
            69 MiB allocation reported by mallinfo(arena+hblkhd)
        487603 MiB available memory on the node where the printing process lives
------------------
     ethr =  1.00E-02,  avg # of iterations =  1.5

     negative rho (up, down):  9.470E-01 7.213E-03

     total cpu time spent up to now is       30.5 secs

     total energy              =    -913.16116658 Ry
     estimated scf accuracy    <       0.88920914 Ry

     total magnetization       =    -0.00 Bohr mag/cell
     absolute magnetization    =     1.81 Bohr mag/cell

     iteration #  6     ecut=    60.00 Ry     beta= 0.40
     Davidson diagonalization with overlap

---- Real-time Memory Report at c_bands before calling an iterative solver
           134 MiB given to the printing process from OS
            69 MiB allocation reported by mallinfo(arena+hblkhd)
        487584 MiB available memory on the node where the printing process lives
------------------
     ethr =  2.78E-03,  avg # of iterations =  3.0

     negative rho (up, down):  1.139E+00 7.229E-03

     total cpu time spent up to now is       36.0 secs

     WARNING: integrated charge=    32.00001210, expected=    32.00000000

     total energy              =    -913.03054420 Ry
     estimated scf accuracy    <       5.91838005 Ry

     total magnetization       =    -0.00 Bohr mag/cell
     absolute magnetization    =     8.27 Bohr mag/cell

     iteration #  7     ecut=    60.00 Ry     beta= 0.40
     Davidson diagonalization with overlap

---- Real-time Memory Report at c_bands before calling an iterative solver
           134 MiB given to the printing process from OS
            69 MiB allocation reported by mallinfo(arena+hblkhd)
        487573 MiB available memory on the node where the printing process lives
------------------
     ethr =  2.78E-03,  avg # of iterations =  2.8

     negative rho (up, down):  1.808E+00 1.429E-02

     total cpu time spent up to now is       41.8 secs

     WARNING: integrated charge=    32.00014634, expected=    32.00000000

     total energy              =    -913.14275104 Ry
     estimated scf accuracy    <       1.68382491 Ry

     total magnetization       =    -0.00 Bohr mag/cell
     absolute magnetization    =     0.96 Bohr mag/cell

     iteration #  8     ecut=    60.00 Ry     beta= 0.40
     Davidson diagonalization with overlap

---- Real-time Memory Report at c_bands before calling an iterative solver
           135 MiB given to the printing process from OS
            70 MiB allocation reported by mallinfo(arena+hblkhd)
        487561 MiB available memory on the node where the printing process lives
------------------
     ethr =  2.78E-03,  avg # of iterations =  2.2
     Minimization algorithm failed to find Fermi energy: reverting to bisection
     Possible cause: smearing is larger than the electronic band-gap.

     negative rho (up, down):  2.100E+00 7.351E-03

     total cpu time spent up to now is       46.9 secs

     WARNING: integrated charge=    32.00008293, expected=    32.00000000

     total energy              =    -913.11784504 Ry
     estimated scf accuracy    <       3.13457963 Ry

     total magnetization       =     0.09 Bohr mag/cell
     absolute magnetization    =     1.60 Bohr mag/cell

     iteration #  9     ecut=    60.00 Ry     beta= 0.40
     Davidson diagonalization with overlap

---- Real-time Memory Report at c_bands before calling an iterative solver
           136 MiB given to the printing process from OS
            70 MiB allocation reported by mallinfo(arena+hblkhd)
        487554 MiB available memory on the node where the printing process lives
------------------
     ethr =  2.78E-03,  avg # of iterations =  2.5

     negative rho (up, down):  2.035E+00 7.348E-03

     total cpu time spent up to now is       52.0 secs

     WARNING: integrated charge=    32.00063258, expected=    32.00000000

     total energy              =    -913.17658297 Ry
     estimated scf accuracy    <       1.03120170 Ry

     total magnetization       =    -0.00 Bohr mag/cell
     absolute magnetization    =     2.82 Bohr mag/cell

     iteration # 10     ecut=    60.00 Ry     beta= 0.40
     Davidson diagonalization with overlap

---- Real-time Memory Report at c_bands before calling an iterative solver
           136 MiB given to the printing process from OS
            70 MiB allocation reported by mallinfo(arena+hblkhd)
        487544 MiB available memory on the node where the printing process lives
------------------
     ethr =  2.78E-03,  avg # of iterations =  1.0

     negative rho (up, down):  2.104E+00 7.350E-03

     total cpu time spent up to now is       56.6 secs

     WARNING: integrated charge=    31.99833487, expected=    32.00000000

     total energy              =    -913.15256277 Ry
     estimated scf accuracy    <       0.98427516 Ry

     total magnetization       =    -0.00 Bohr mag/cell
     absolute magnetization    =     2.64 Bohr mag/cell

     iteration # 11     ecut=    60.00 Ry     beta= 0.40
     Davidson diagonalization with overlap

---- Real-time Memory Report at c_bands before calling an iterative solver
           136 MiB given to the printing process from OS
            70 MiB allocation reported by mallinfo(arena+hblkhd)
        487543 MiB available memory on the node where the printing process lives
------------------
     ethr =  2.78E-03,  avg # of iterations =  1.5

     negative rho (up, down):  1.916E+00 1.400E-02

     total cpu time spent up to now is       61.3 secs

     WARNING: integrated charge=    31.99785084, expected=    32.00000000

     total energy              =    -913.17812569 Ry
     estimated scf accuracy    <       0.38059210 Ry

     total magnetization       =    -0.00 Bohr mag/cell
     absolute magnetization    =     4.81 Bohr mag/cell

     iteration # 12     ecut=    60.00 Ry     beta= 0.40
     Davidson diagonalization with overlap

---- Real-time Memory Report at c_bands before calling an iterative solver
           136 MiB given to the printing process from OS
            70 MiB allocation reported by mallinfo(arena+hblkhd)
        487579 MiB available memory on the node where the printing process lives
------------------
     ethr =  1.19E-03,  avg # of iterations =  2.5
     Minimization algorithm failed to find Fermi energy: reverting to bisection
     Possible cause: smearing is larger than the electronic band-gap.

     negative rho (up, down):  2.252E+00 7.355E-03

     total cpu time spent up to now is       66.4 secs

     WARNING: integrated charge=    31.99933784, expected=    32.00000000

     total energy              =    -913.16368734 Ry
     estimated scf accuracy    <       1.17010322 Ry

     total magnetization       =     0.09 Bohr mag/cell
     absolute magnetization    =     2.77 Bohr mag/cell

     iteration # 13     ecut=    60.00 Ry     beta= 0.40
     Davidson diagonalization with overlap

---- Real-time Memory Report at c_bands before calling an iterative solver
           136 MiB given to the printing process from OS
            70 MiB allocation reported by mallinfo(arena+hblkhd)
        487570 MiB available memory on the node where the printing process lives
------------------
     ethr =  1.19E-03,  avg # of iterations =  2.1
     Minimization algorithm failed to find Fermi energy: reverting to bisection
     Possible cause: smearing is larger than the electronic band-gap.

     negative rho (up, down):  3.486E-01 1.833E-01

     total cpu time spent up to now is       71.3 secs

     WARNING: integrated charge=    31.99176400, expected=    32.00000000

     total energy              =    -913.15265141 Ry
     estimated scf accuracy    <       1.22165476 Ry

     total magnetization       =     0.06 Bohr mag/cell
     absolute magnetization    =     4.40 Bohr mag/cell

     iteration # 14     ecut=    60.00 Ry     beta= 0.40
     Davidson diagonalization with overlap

---- Real-time Memory Report at c_bands before calling an iterative solver
           136 MiB given to the printing process from OS
            70 MiB allocation reported by mallinfo(arena+hblkhd)
        487566 MiB available memory on the node where the printing process lives
------------------
     ethr =  1.19E-03,  avg # of iterations =  2.4

     negative rho (up, down):  2.930E-01 2.786E-01

     total cpu time spent up to now is       76.6 secs

     WARNING: integrated charge=    31.98939091, expected=    32.00000000

     total energy              =    -913.21038216 Ry
     estimated scf accuracy    <       0.61148168 Ry

     total magnetization       =    -0.00 Bohr mag/cell
     absolute magnetization    =     2.85 Bohr mag/cell

     iteration # 15     ecut=    60.00 Ry     beta= 0.40
     Davidson diagonalization with overlap

---- Real-time Memory Report at c_bands before calling an iterative solver
           137 MiB given to the printing process from OS
            70 MiB allocation reported by mallinfo(arena+hblkhd)
        487565 MiB available memory on the node where the printing process lives
------------------
     ethr =  1.19E-03,  avg # of iterations =  1.0

     negative rho (up, down):  7.859E-01 1.680E-01

     total cpu time spent up to now is       81.2 secs

     WARNING: integrated charge=    31.99725412, expected=    32.00000000

     total energy              =    -913.17726801 Ry
     estimated scf accuracy    <       0.61607973 Ry

     total magnetization       =    -0.00 Bohr mag/cell
     absolute magnetization    =     2.33 Bohr mag/cell

     iteration # 16     ecut=    60.00 Ry     beta= 0.40
     Davidson diagonalization with overlap

---- Real-time Memory Report at c_bands before calling an iterative solver
           137 MiB given to the printing process from OS
            70 MiB allocation reported by mallinfo(arena+hblkhd)
        487566 MiB available memory on the node where the printing process lives
------------------
     ethr =  1.19E-03,  avg # of iterations =  2.0

     negative rho (up, down):  6.764E-01 2.588E-01

     total cpu time spent up to now is       86.0 secs

     WARNING: integrated charge=    32.00176398, expected=    32.00000000

     total energy              =    -913.17956444 Ry
     estimated scf accuracy    <       0.02609133 Ry

     total magnetization       =    -0.00 Bohr mag/cell
     absolute magnetization    =     2.10 Bohr mag/cell

     iteration # 17     ecut=    60.00 Ry     beta= 0.40
     Davidson diagonalization with overlap

---- Real-time Memory Report at c_bands before calling an iterative solver
           137 MiB given to the printing process from OS
            70 MiB allocation reported by mallinfo(arena+hblkhd)
        487563 MiB available memory on the node where the printing process lives
------------------
     ethr =  8.15E-05,  avg # of iterations =  6.0

     negative rho (up, down):  7.615E-01 2.559E-01

     total cpu time spent up to now is       94.8 secs

     WARNING: integrated charge=    32.00212649, expected=    32.00000000

     total energy              =    -913.19971399 Ry
     estimated scf accuracy    <       4.10003041 Ry

     total magnetization       =    -0.00 Bohr mag/cell
     absolute magnetization    =     3.69 Bohr mag/cell

     iteration # 18     ecut=    60.00 Ry     beta= 0.40
     Davidson diagonalization with overlap

---- Real-time Memory Report at c_bands before calling an iterative solver
           137 MiB given to the printing process from OS
            70 MiB allocation reported by mallinfo(arena+hblkhd)
        487552 MiB available memory on the node where the printing process lives
------------------
     ethr =  8.15E-05,  avg # of iterations =  4.5

     negative rho (up, down):  4.190E-01 3.619E-01

     total cpu time spent up to now is      101.5 secs

     WARNING: integrated charge=    31.99973729, expected=    32.00000000

     total energy              =    -913.20245260 Ry
     estimated scf accuracy    <       1.35368012 Ry

     total magnetization       =    -0.00 Bohr mag/cell
     absolute magnetization    =     1.18 Bohr mag/cell

     iteration # 19     ecut=    60.00 Ry     beta= 0.40
     Davidson diagonalization with overlap

---- Real-time Memory Report at c_bands before calling an iterative solver
           137 MiB given to the printing process from OS
            70 MiB allocation reported by mallinfo(arena+hblkhd)
        487552 MiB available memory on the node where the printing process lives
------------------
     ethr =  8.15E-05,  avg # of iterations =  4.0

     negative rho (up, down):  4.171E-01 3.737E-01

     total cpu time spent up to now is      107.7 secs

     WARNING: integrated charge=    32.00002449, expected=    32.00000000

     total energy              =    -913.21175409 Ry
     estimated scf accuracy    <       0.59832832 Ry

     total magnetization       =    -0.00 Bohr mag/cell
     absolute magnetization    =     0.72 Bohr mag/cell

     iteration # 20     ecut=    60.00 Ry     beta= 0.40
     Davidson diagonalization with overlap

---- Real-time Memory Report at c_bands before calling an iterative solver
           137 MiB given to the printing process from OS
            70 MiB allocation reported by mallinfo(arena+hblkhd)
        487552 MiB available memory on the node where the printing process lives
------------------
     ethr =  8.15E-05,  avg # of iterations =  1.1

     negative rho (up, down):  6.686E-01 2.110E-01

     total cpu time spent up to now is      112.3 secs

     WARNING: integrated charge=    32.00171993, expected=    32.00000000

     total energy              =    -913.23980662 Ry
     estimated scf accuracy    <       0.61305589 Ry

     total magnetization       =    -0.00 Bohr mag/cell
     absolute magnetization    =     0.62 Bohr mag/cell

     iteration # 21     ecut=    60.00 Ry     beta= 0.40
     Davidson diagonalization with overlap

---- Real-time Memory Report at c_bands before calling an iterative solver
           137 MiB given to the printing process from OS
            70 MiB allocation reported by mallinfo(arena+hblkhd)
        487552 MiB available memory on the node where the printing process lives
------------------
     ethr =  8.15E-05,  avg # of iterations =  3.9

     negative rho (up, down):  7.596E-01 2.312E-01

     total cpu time spent up to now is      119.9 secs

     WARNING: integrated charge=    32.00011115, expected=    32.00000000

     total energy              =    -913.17524335 Ry
     estimated scf accuracy    <       5.92222746 Ry

     total magnetization       =    -0.00 Bohr mag/cell
     absolute magnetization    =     2.86 Bohr mag/cell

     iteration # 22     ecut=    60.00 Ry     beta= 0.40
     Davidson diagonalization with overlap

---- Real-time Memory Report at c_bands before calling an iterative solver
           137 MiB given to the printing process from OS
            70 MiB allocation reported by mallinfo(arena+hblkhd)
        487543 MiB available memory on the node where the printing process lives
------------------
     ethr =  8.15E-05,  avg # of iterations =  5.3

     negative rho (up, down):  6.848E-01 3.063E-01

     total cpu time spent up to now is      127.1 secs

     WARNING: integrated charge=    31.99952489, expected=    32.00000000

     total energy              =    -913.23737084 Ry
     estimated scf accuracy    <       1.14780745 Ry

     total magnetization       =    -0.00 Bohr mag/cell
     absolute magnetization    =     1.78 Bohr mag/cell

     iteration # 23     ecut=    60.00 Ry     beta= 0.40
     Davidson diagonalization with overlap

---- Real-time Memory Report at c_bands before calling an iterative solver
           137 MiB given to the printing process from OS
            70 MiB allocation reported by mallinfo(arena+hblkhd)
        487542 MiB available memory on the node where the printing process lives
------------------
     ethr =  8.15E-05,  avg # of iterations =  3.0

     negative rho (up, down):  5.460E-01 2.755E-01

     total cpu time spent up to now is      133.5 secs

     WARNING: integrated charge=    32.00190645, expected=    32.00000000

     total energy              =    -913.09928952 Ry
     estimated scf accuracy    <       3.30843393 Ry

     total magnetization       =    -0.00 Bohr mag/cell
     absolute magnetization    =     3.48 Bohr mag/cell

     iteration # 24     ecut=    60.00 Ry     beta= 0.40
     Davidson diagonalization with overlap

---- Real-time Memory Report at c_bands before calling an iterative solver
           137 MiB given to the printing process from OS
            70 MiB allocation reported by mallinfo(arena+hblkhd)
        487542 MiB available memory on the node where the printing process lives
------------------
     ethr =  8.15E-05,  avg # of iterations =  5.7

     negative rho (up, down):  8.171E-01 1.846E-01

     total cpu time spent up to now is      141.9 secs

     WARNING: integrated charge=    32.00306832, expected=    32.00000000

     total energy              =    -913.19824444 Ry
     estimated scf accuracy    <       1.68656267 Ry

     total magnetization       =    -0.00 Bohr mag/cell
     absolute magnetization    =     4.48 Bohr mag/cell

     iteration # 25     ecut=    60.00 Ry     beta= 0.40
     Davidson diagonalization with overlap

---- Real-time Memory Report at c_bands before calling an iterative solver
           137 MiB given to the printing process from OS
            70 MiB allocation reported by mallinfo(arena+hblkhd)
        487542 MiB available memory on the node where the printing process lives
------------------
     ethr =  8.15E-05,  avg # of iterations =  3.4

     negative rho (up, down):  7.727E-01 1.877E-01

     total cpu time spent up to now is      148.2 secs

     WARNING: integrated charge=    32.00311986, expected=    32.00000000

     total energy              =    -913.16728041 Ry
     estimated scf accuracy    <       0.80444397 Ry

     total magnetization       =    -0.00 Bohr mag/cell
     absolute magnetization    =     2.94 Bohr mag/cell

     iteration # 26     ecut=    60.00 Ry     beta= 0.40
     Davidson diagonalization with overlap

---- Real-time Memory Report at c_bands before calling an iterative solver
           137 MiB given to the printing process from OS
            70 MiB allocation reported by mallinfo(arena+hblkhd)
        487530 MiB available memory on the node where the printing process lives
------------------
     ethr =  8.15E-05,  avg # of iterations =  4.0

     negative rho (up, down):  7.493E-01 1.772E-01

     total cpu time spent up to now is      155.7 secs

     WARNING: integrated charge=    32.00310689, expected=    32.00000000

     total energy              =    -913.22573550 Ry
     estimated scf accuracy    <       0.65302075 Ry

     total magnetization       =    -0.00 Bohr mag/cell
     absolute magnetization    =     1.16 Bohr mag/cell

     iteration # 27     ecut=    60.00 Ry     beta= 0.40
     Davidson diagonalization with overlap

---- Real-time Memory Report at c_bands before calling an iterative solver
           137 MiB given to the printing process from OS
            70 MiB allocation reported by mallinfo(arena+hblkhd)
        487529 MiB available memory on the node where the printing process lives
------------------
     ethr =  8.15E-05,  avg # of iterations =  3.1

     negative rho (up, down):  7.012E-01 2.098E-01

     total cpu time spent up to now is      162.1 secs

     WARNING: integrated charge=    32.00322999, expected=    32.00000000

     total energy              =    -913.25226855 Ry
     estimated scf accuracy    <       2.63947986 Ry

     total magnetization       =    -0.00 Bohr mag/cell
     absolute magnetization    =     2.73 Bohr mag/cell

     iteration # 28     ecut=    60.00 Ry     beta= 0.40
     Davidson diagonalization with overlap

---- Real-time Memory Report at c_bands before calling an iterative solver
           137 MiB given to the printing process from OS
            70 MiB allocation reported by mallinfo(arena+hblkhd)
        487529 MiB available memory on the node where the printing process lives
------------------
     ethr =  8.15E-05,  avg # of iterations =  2.9

     negative rho (up, down):  7.258E-01 1.715E-01

     total cpu time spent up to now is      167.8 secs

     WARNING: integrated charge=    32.00316574, expected=    32.00000000

     total energy              =    -913.26495744 Ry
     estimated scf accuracy    <       3.84947172 Ry

     total magnetization       =    -0.00 Bohr mag/cell
     absolute magnetization    =     3.26 Bohr mag/cell

     iteration # 29     ecut=    60.00 Ry     beta= 0.40
     Davidson diagonalization with overlap

---- Real-time Memory Report at c_bands before calling an iterative solver
           137 MiB given to the printing process from OS
            70 MiB allocation reported by mallinfo(arena+hblkhd)
        487528 MiB available memory on the node where the printing process lives
------------------
     ethr =  8.15E-05,  avg # of iterations =  3.0

     negative rho (up, down):  7.554E-01 2.017E-01

     total cpu time spent up to now is      173.0 secs

     WARNING: integrated charge=    32.00248712, expected=    32.00000000

     total energy              =    -913.21081084 Ry
     estimated scf accuracy    <       4.43182127 Ry

     total magnetization       =    -0.00 Bohr mag/cell
     absolute magnetization    =     2.89 Bohr mag/cell

     iteration # 30     ecut=    60.00 Ry     beta= 0.40
     Davidson diagonalization with overlap

---- Real-time Memory Report at c_bands before calling an iterative solver
           137 MiB given to the printing process from OS
            70 MiB allocation reported by mallinfo(arena+hblkhd)
        487522 MiB available memory on the node where the printing process lives
------------------
     ethr =  8.15E-05,  avg # of iterations =  4.5

     negative rho (up, down):  7.895E-01 2.046E-01

     total cpu time spent up to now is      179.4 secs

     WARNING: integrated charge=    32.00238589, expected=    32.00000000

     total energy              =    -913.18886195 Ry
     estimated scf accuracy    <       1.74321223 Ry

     total magnetization       =    -0.00 Bohr mag/cell
     absolute magnetization    =     2.13 Bohr mag/cell

     iteration # 31     ecut=    60.00 Ry     beta= 0.40
     Davidson diagonalization with overlap

---- Real-time Memory Report at c_bands before calling an iterative solver
           137 MiB given to the printing process from OS
            70 MiB allocation reported by mallinfo(arena+hblkhd)
        487521 MiB available memory on the node where the printing process lives
------------------
     ethr =  8.15E-05,  avg # of iterations =  4.5

     negative rho (up, down):  7.610E-01 2.036E-01

     total cpu time spent up to now is      186.0 secs

     WARNING: integrated charge=    32.00246944, expected=    32.00000000

     total energy              =    -913.20831336 Ry
     estimated scf accuracy    <       0.42268526 Ry

     total magnetization       =    -0.00 Bohr mag/cell
     absolute magnetization    =     0.97 Bohr mag/cell

     iteration # 32     ecut=    60.00 Ry     beta= 0.40
     Davidson diagonalization with overlap

---- Real-time Memory Report at c_bands before calling an iterative solver
           137 MiB given to the printing process from OS
            70 MiB allocation reported by mallinfo(arena+hblkhd)
        487521 MiB available memory on the node where the printing process lives
------------------
     ethr =  8.15E-05,  avg # of iterations =  4.2

     negative rho (up, down):  7.651E-01 2.039E-01

     total cpu time spent up to now is      192.5 secs

     WARNING: integrated charge=    32.00241078, expected=    32.00000000

     total energy              =    -913.21756201 Ry
     estimated scf accuracy    <       1.50332058 Ry

     total magnetization       =    -0.00 Bohr mag/cell
     absolute magnetization    =     2.14 Bohr mag/cell

     iteration # 33     ecut=    60.00 Ry     beta= 0.40
     Davidson diagonalization with overlap

---- Real-time Memory Report at c_bands before calling an iterative solver
           137 MiB given to the printing process from OS
            70 MiB allocation reported by mallinfo(arena+hblkhd)
        487521 MiB available memory on the node where the printing process lives
------------------
     ethr =  8.15E-05,  avg # of iterations =  1.2

     negative rho (up, down):  7.922E-01 2.028E-01

     total cpu time spent up to now is      197.1 secs

     WARNING: integrated charge=    32.00232688, expected=    32.00000000

     total energy              =    -913.18693651 Ry
     estimated scf accuracy    <       1.40380461 Ry

     total magnetization       =    -0.00 Bohr mag/cell
     absolute magnetization    =     2.14 Bohr mag/cell

     iteration # 34     ecut=    60.00 Ry     beta= 0.40
     Davidson diagonalization with overlap

---- Real-time Memory Report at c_bands before calling an iterative solver
           137 MiB given to the printing process from OS
            70 MiB allocation reported by mallinfo(arena+hblkhd)
        487514 MiB available memory on the node where the printing process lives
------------------
     ethr =  8.15E-05,  avg # of iterations =  3.0

     negative rho (up, down):  7.692E-01 2.140E-01

     total cpu time spent up to now is      203.7 secs

     WARNING: integrated charge=    32.00247031, expected=    32.00000000

     total energy              =    -913.20705767 Ry
     estimated scf accuracy    <       0.20956912 Ry

     total magnetization       =    -0.00 Bohr mag/cell
     absolute magnetization    =     0.60 Bohr mag/cell

     iteration # 35     ecut=    60.00 Ry     beta= 0.40
     Davidson diagonalization with overlap

---- Real-time Memory Report at c_bands before calling an iterative solver
           137 MiB given to the printing process from OS
            70 MiB allocation reported by mallinfo(arena+hblkhd)
        487515 MiB available memory on the node where the printing process lives
------------------
     ethr =  8.15E-05,  avg # of iterations =  3.2

     negative rho (up, down):  7.706E-01 2.137E-01

     total cpu time spent up to now is      209.9 secs

     WARNING: integrated charge=    32.00241947, expected=    32.00000000

     total energy              =    -913.21346230 Ry
     estimated scf accuracy    <       0.96015867 Ry

     total magnetization       =    -0.00 Bohr mag/cell
     absolute magnetization    =     1.81 Bohr mag/cell

     iteration # 36     ecut=    60.00 Ry     beta= 0.40
     Davidson diagonalization with overlap

---- Real-time Memory Report at c_bands before calling an iterative solver
           137 MiB given to the printing process from OS
            70 MiB allocation reported by mallinfo(arena+hblkhd)
        487513 MiB available memory on the node where the printing process lives
------------------
     ethr =  8.15E-05,  avg # of iterations =  1.2

     negative rho (up, down):  7.702E-01 2.138E-01

     total cpu time spent up to now is      214.5 secs

     WARNING: integrated charge=    32.00243599, expected=    32.00000000

     total energy              =    -913.21503237 Ry
     estimated scf accuracy    <       0.97112749 Ry

     total magnetization       =    -0.00 Bohr mag/cell
     absolute magnetization    =     1.89 Bohr mag/cell

     iteration # 37     ecut=    60.00 Ry     beta= 0.40
     Davidson diagonalization with overlap

---- Real-time Memory Report at c_bands before calling an iterative solver
           137 MiB given to the printing process from OS
            70 MiB allocation reported by mallinfo(arena+hblkhd)
        487512 MiB available memory on the node where the printing process lives
------------------
     ethr =  8.15E-05,  avg # of iterations =  1.0

     negative rho (up, down):  7.961E-01 2.040E-01

     total cpu time spent up to now is      219.1 secs

     WARNING: integrated charge=    32.00149592, expected=    32.00000000

     total energy              =    -913.17576953 Ry
     estimated scf accuracy    <       1.01530735 Ry

     total magnetization       =    -0.00 Bohr mag/cell
     absolute magnetization    =     1.97 Bohr mag/cell

     iteration # 38     ecut=    60.00 Ry     beta= 0.40
     Davidson diagonalization with overlap

---- Real-time Memory Report at c_bands before calling an iterative solver
           137 MiB given to the printing process from OS
            70 MiB allocation reported by mallinfo(arena+hblkhd)
        487512 MiB available memory on the node where the printing process lives
------------------
     ethr =  8.15E-05,  avg # of iterations =  4.9

     negative rho (up, down):  7.853E-01 1.970E-01

     total cpu time spent up to now is      225.9 secs

     WARNING: integrated charge=    32.00339101, expected=    32.00000000

     total energy              =    -913.19340877 Ry
     estimated scf accuracy    <       0.04511302 Ry

     total magnetization       =    -0.00 Bohr mag/cell
     absolute magnetization    =     1.87 Bohr mag/cell

     iteration # 39     ecut=    60.00 Ry     beta= 0.40
     Davidson diagonalization with overlap

---- Real-time Memory Report at c_bands before calling an iterative solver
           137 MiB given to the printing process from OS
            70 MiB allocation reported by mallinfo(arena+hblkhd)
        487505 MiB available memory on the node where the printing process lives
------------------
     ethr =  8.15E-05,  avg # of iterations =  4.5

     negative rho (up, down):  7.924E-01 2.189E-01

     total cpu time spent up to now is      232.4 secs

     WARNING: integrated charge=    32.00548820, expected=    32.00000000

     total energy              =    -913.20376545 Ry
     estimated scf accuracy    <       0.49821120 Ry

     total magnetization       =    -0.00 Bohr mag/cell
     absolute magnetization    =     1.06 Bohr mag/cell

     iteration # 40     ecut=    60.00 Ry     beta= 0.40
     Davidson diagonalization with overlap

---- Real-time Memory Report at c_bands before calling an iterative solver
           137 MiB given to the printing process from OS
            70 MiB allocation reported by mallinfo(arena+hblkhd)
        487507 MiB available memory on the node where the printing process lives
------------------
     ethr =  8.15E-05,  avg # of iterations =  1.5

     negative rho (up, down):  8.767E-01 1.163E-01

     total cpu time spent up to now is      237.1 secs

     WARNING: integrated charge=    32.00391855, expected=    32.00000000

     total energy              =    -913.17493537 Ry
     estimated scf accuracy    <       0.43959260 Ry

     total magnetization       =     0.00 Bohr mag/cell
     absolute magnetization    =     0.81 Bohr mag/cell

     iteration # 41     ecut=    60.00 Ry     beta= 0.40
     Davidson diagonalization with overlap

---- Real-time Memory Report at c_bands before calling an iterative solver
           137 MiB given to the printing process from OS
            70 MiB allocation reported by mallinfo(arena+hblkhd)
        487507 MiB available memory on the node where the printing process lives
------------------
     ethr =  8.15E-05,  avg # of iterations =  4.5

     negative rho (up, down):  8.000E-01 1.858E-01

     total cpu time spent up to now is      244.0 secs

     WARNING: integrated charge=    32.00269341, expected=    32.00000000

     total energy              =    -913.18504594 Ry
     estimated scf accuracy    <       0.33847192 Ry

     total magnetization       =    -0.00 Bohr mag/cell
     absolute magnetization    =     2.98 Bohr mag/cell

     iteration # 42     ecut=    60.00 Ry     beta= 0.40
     Davidson diagonalization with overlap

---- Real-time Memory Report at c_bands before calling an iterative solver
           137 MiB given to the printing process from OS
            70 MiB allocation reported by mallinfo(arena+hblkhd)
        487506 MiB available memory on the node where the printing process lives
------------------
     ethr =  8.15E-05,  avg # of iterations =  4.5

     negative rho (up, down):  7.975E-01 1.917E-01

     total cpu time spent up to now is      250.5 secs

     WARNING: integrated charge=    32.00271483, expected=    32.00000000

     total energy              =    -913.20263303 Ry
     estimated scf accuracy    <       0.18125289 Ry

     total magnetization       =    -0.00 Bohr mag/cell
     absolute magnetization    =     0.73 Bohr mag/cell

     iteration # 43     ecut=    60.00 Ry     beta= 0.40
     Davidson diagonalization with overlap

---- Real-time Memory Report at c_bands before calling an iterative solver
           137 MiB given to the printing process from OS
            70 MiB allocation reported by mallinfo(arena+hblkhd)
        487502 MiB available memory on the node where the printing process lives
------------------
     ethr =  8.15E-05,  avg # of iterations =  1.0

     negative rho (up, down):  7.958E-01 1.916E-01

     total cpu time spent up to now is      255.1 secs

     WARNING: integrated charge=    32.00258786, expected=    32.00000000

     total energy              =    -913.20237946 Ry
     estimated scf accuracy    <       0.23005391 Ry

     total magnetization       =    -0.00 Bohr mag/cell
     absolute magnetization    =     0.68 Bohr mag/cell

     iteration # 44     ecut=    60.00 Ry     beta= 0.40
     Davidson diagonalization with overlap

---- Real-time Memory Report at c_bands before calling an iterative solver
           137 MiB given to the printing process from OS
            70 MiB allocation reported by mallinfo(arena+hblkhd)
        487502 MiB available memory on the node where the printing process lives
------------------
     ethr =  8.15E-05,  avg # of iterations =  1.0

     negative rho (up, down):  8.060E-01 1.727E-01

     total cpu time spent up to now is      259.6 secs

     WARNING: integrated charge=    32.00228399, expected=    32.00000000

     total energy              =    -913.19942675 Ry
     estimated scf accuracy    <       0.22584674 Ry

     total magnetization       =    -0.00 Bohr mag/cell
     absolute magnetization    =     0.63 Bohr mag/cell

     iteration # 45     ecut=    60.00 Ry     beta= 0.40
     Davidson diagonalization with overlap

---- Real-time Memory Report at c_bands before calling an iterative solver
[...]
     Davidson diagonalization with overlap

---- Real-time Memory Report at c_bands before calling an iterative solver
           138 MiB given to the printing process from OS
            70 MiB allocation reported by mallinfo(arena+hblkhd)
        487505 MiB available memory on the node where the printing process lives
------------------
     ethr =  7.64E-06,  avg # of iterations =  3.0

     negative rho (up, down):  8.291E-01 7.779E-03

     total cpu time spent up to now is      439.2 secs

     WARNING: integrated charge=    32.00205460, expected=    32.00000000

     total energy              =    -913.19735575 Ry
     estimated scf accuracy    <       0.03480892 Ry

     total magnetization       =    -0.00 Bohr mag/cell
     absolute magnetization    =     1.80 Bohr mag/cell

     iteration # 83     ecut=    60.00 Ry     beta= 0.40
     Davidson diagonalization with overlap

---- Real-time Memory Report at c_bands before calling an iterative solver
           138 MiB given to the printing process from OS
            70 MiB allocation reported by mallinfo(arena+hblkhd)
        487501 MiB available memory on the node where the printing process lives
------------------
     ethr =  7.64E-06,  avg # of iterations =  3.0

     negative rho (up, down):  8.352E-01 7.724E-03

     total cpu time spent up to now is      445.6 secs

     WARNING: integrated charge=    32.00220495, expected=    32.00000000

     total energy              =    -913.19799478 Ry
     estimated scf accuracy    <       0.00423303 Ry

     total magnetization       =    -0.00 Bohr mag/cell
     absolute magnetization    =     2.33 Bohr mag/cell

     iteration # 84     ecut=    60.00 Ry     beta= 0.40
     Davidson diagonalization with overlap

---- Real-time Memory Report at c_bands before calling an iterative solver
           138 MiB given to the printing process from OS
            70 MiB allocation reported by mallinfo(arena+hblkhd)
        487501 MiB available memory on the node where the printing process lives
------------------
     ethr =  7.64E-06,  avg # of iterations =  1.0

     negative rho (up, down):  8.432E-01 8.285E-03

     total cpu time spent up to now is      450.2 secs

     WARNING: integrated charge=    32.00231371, expected=    32.00000000

     total energy              =    -913.19754189 Ry
     estimated scf accuracy    <       0.00425140 Ry

     total magnetization       =    -0.00 Bohr mag/cell
     absolute magnetization    =     2.34 Bohr mag/cell

     iteration # 85     ecut=    60.00 Ry     beta= 0.40
     Davidson diagonalization with overlap

---- Real-time Memory Report at c_bands before calling an iterative solver
           138 MiB given to the printing process from OS
            70 MiB allocation reported by mallinfo(arena+hblkhd)
        487500 MiB available memory on the node where the printing process lives
------------------
     ethr =  7.64E-06,  avg # of iterations =  1.0

     negative rho (up, down):  8.452E-01 8.979E-03

     total cpu time spent up to now is      454.8 secs

     WARNING: integrated charge=    32.00240727, expected=    32.00000000

     total energy              =    -913.19732421 Ry
     estimated scf accuracy    <       0.00527924 Ry

     total magnetization       =    -0.00 Bohr mag/cell
     absolute magnetization    =     2.36 Bohr mag/cell

     iteration # 86     ecut=    60.00 Ry     beta= 0.40
     Davidson diagonalization with overlap

---- Real-time Memory Report at c_bands before calling an iterative solver
           138 MiB given to the printing process from OS
            70 MiB allocation reported by mallinfo(arena+hblkhd)
        487500 MiB available memory on the node where the printing process lives
------------------
     ethr =  7.64E-06,  avg # of iterations =  1.0

     negative rho (up, down):  8.446E-01 8.866E-03

     total cpu time spent up to now is      459.3 secs

     WARNING: integrated charge=    32.00238470, expected=    32.00000000

     total energy              =    -913.19729660 Ry
     estimated scf accuracy    <       0.00512734 Ry

     total magnetization       =    -0.00 Bohr mag/cell
     absolute magnetization    =     2.36 Bohr mag/cell

     iteration # 87     ecut=    60.00 Ry     beta= 0.40
     Davidson diagonalization with overlap

---- Real-time Memory Report at c_bands before calling an iterative solver
           138 MiB given to the printing process from OS
            70 MiB allocation reported by mallinfo(arena+hblkhd)
        487499 MiB available memory on the node where the printing process lives
------------------
     ethr =  7.64E-06,  avg # of iterations =  1.0

     negative rho (up, down):  8.444E-01 9.045E-03

     total cpu time spent up to now is      463.9 secs

     WARNING: integrated charge=    32.00239750, expected=    32.00000000

     total energy              =    -913.19734320 Ry
     estimated scf accuracy    <       0.00596689 Ry

     total magnetization       =    -0.00 Bohr mag/cell
     absolute magnetization    =     2.37 Bohr mag/cell

     iteration # 88     ecut=    60.00 Ry     beta= 0.40
     Davidson diagonalization with overlap

---- Real-time Memory Report at c_bands before calling an iterative solver
           138 MiB given to the printing process from OS
            70 MiB allocation reported by mallinfo(arena+hblkhd)
        487495 MiB available memory on the node where the printing process lives
------------------
     ethr =  7.64E-06,  avg # of iterations =  1.0

     negative rho (up, down):  8.425E-01 1.003E-02

     total cpu time spent up to now is      468.5 secs

     WARNING: integrated charge=    32.00238143, expected=    32.00000000

     total energy              =    -913.19742377 Ry
     estimated scf accuracy    <       0.00644121 Ry

     total magnetization       =    -0.00 Bohr mag/cell
     absolute magnetization    =     2.37 Bohr mag/cell

     iteration # 89     ecut=    60.00 Ry     beta= 0.40
     Davidson diagonalization with overlap

---- Real-time Memory Report at c_bands before calling an iterative solver
           138 MiB given to the printing process from OS
            70 MiB allocation reported by mallinfo(arena+hblkhd)
        487494 MiB available memory on the node where the printing process lives
------------------
     ethr =  7.64E-06,  avg # of iterations =  1.0

     negative rho (up, down):  8.404E-01 1.003E-02

     total cpu time spent up to now is      473.0 secs

     WARNING: integrated charge=    32.00236864, expected=    32.00000000

     total energy              =    -913.19749305 Ry
     estimated scf accuracy    <       0.00688353 Ry

     total magnetization       =    -0.00 Bohr mag/cell
     absolute magnetization    =     2.37 Bohr mag/cell

     iteration # 90     ecut=    60.00 Ry     beta= 0.40
     Davidson diagonalization with overlap

---- Real-time Memory Report at c_bands before calling an iterative solver
           138 MiB given to the printing process from OS
            70 MiB allocation reported by mallinfo(arena+hblkhd)
        487493 MiB available memory on the node where the printing process lives
------------------
     ethr =  7.64E-06,  avg # of iterations =  1.0

     negative rho (up, down):  8.412E-01 9.808E-03

     total cpu time spent up to now is      477.6 secs

     WARNING: integrated charge=    32.00236545, expected=    32.00000000

     total energy              =    -913.19745598 Ry
     estimated scf accuracy    <       0.00690658 Ry

     total magnetization       =    -0.00 Bohr mag/cell
     absolute magnetization    =     2.37 Bohr mag/cell

     iteration # 91     ecut=    60.00 Ry     beta= 0.40
     Davidson diagonalization with overlap

---- Real-time Memory Report at c_bands before calling an iterative solver
           138 MiB given to the printing process from OS
            70 MiB allocation reported by mallinfo(arena+hblkhd)
        487493 MiB available memory on the node where the printing process lives
------------------
     ethr =  7.64E-06,  avg # of iterations =  1.0

     negative rho (up, down):  8.720E-01 7.580E-03

     total cpu time spent up to now is      482.2 secs

     WARNING: integrated charge=    32.00262349, expected=    32.00000000

     total energy              =    -913.19687500 Ry
     estimated scf accuracy    <       0.00691450 Ry

     total magnetization       =    -0.00 Bohr mag/cell
     absolute magnetization    =     2.37 Bohr mag/cell

     iteration # 92     ecut=    60.00 Ry     beta= 0.40
     Davidson diagonalization with overlap

---- Real-time Memory Report at c_bands before calling an iterative solver
           138 MiB given to the printing process from OS
            70 MiB allocation reported by mallinfo(arena+hblkhd)
        487492 MiB available memory on the node where the printing process lives
------------------
     ethr =  7.64E-06,  avg # of iterations =  2.6

     negative rho (up, down):  8.422E-01 9.814E-03

     total cpu time spent up to now is      487.9 secs

     WARNING: integrated charge=    32.00234591, expected=    32.00000000

     total energy              =    -913.19700015 Ry
     estimated scf accuracy    <       0.04726099 Ry

     total magnetization       =    -0.00 Bohr mag/cell
     absolute magnetization    =     2.71 Bohr mag/cell

     iteration # 93     ecut=    60.00 Ry     beta= 0.40
     Davidson diagonalization with overlap

---- Real-time Memory Report at c_bands before calling an iterative solver
           138 MiB given to the printing process from OS
            70 MiB allocation reported by mallinfo(arena+hblkhd)
        487491 MiB available memory on the node where the printing process lives
------------------
     ethr =  7.64E-06,  avg # of iterations =  2.5

     negative rho (up, down):  8.438E-01 9.746E-03

     total cpu time spent up to now is      493.7 secs

     WARNING: integrated charge=    32.00236129, expected=    32.00000000

     total energy              =    -913.19738559 Ry
     estimated scf accuracy    <       0.00765339 Ry

     total magnetization       =    -0.00 Bohr mag/cell
     absolute magnetization    =     2.38 Bohr mag/cell

     iteration # 94     ecut=    60.00 Ry     beta= 0.40
     Davidson diagonalization with overlap

---- Real-time Memory Report at c_bands before calling an iterative solver
           138 MiB given to the printing process from OS
            70 MiB allocation reported by mallinfo(arena+hblkhd)
        487489 MiB available memory on the node where the printing process lives
------------------
     ethr =  7.64E-06,  avg # of iterations =  1.0

     negative rho (up, down):  8.399E-01 8.891E-03

     total cpu time spent up to now is      498.3 secs

     WARNING: integrated charge=    32.00229574, expected=    32.00000000

     total energy              =    -913.19754534 Ry
     estimated scf accuracy    <       0.00774512 Ry

     total magnetization       =    -0.00 Bohr mag/cell
     absolute magnetization    =     2.38 Bohr mag/cell

     iteration # 95     ecut=    60.00 Ry     beta= 0.40
     Davidson diagonalization with overlap

---- Real-time Memory Report at c_bands before calling an iterative solver
           138 MiB given to the printing process from OS
            70 MiB allocation reported by mallinfo(arena+hblkhd)
        487488 MiB available memory on the node where the printing process lives
------------------
     ethr =  7.64E-06,  avg # of iterations =  1.0

     negative rho (up, down):  8.398E-01 8.764E-03

     total cpu time spent up to now is      502.8 secs

     WARNING: integrated charge=    32.00229513, expected=    32.00000000

     total energy              =    -913.19754754 Ry
     estimated scf accuracy    <       0.00759824 Ry

     total magnetization       =    -0.00 Bohr mag/cell
     absolute magnetization    =     2.37 Bohr mag/cell

     iteration # 96     ecut=    60.00 Ry     beta= 0.40
     Davidson diagonalization with overlap

---- Real-time Memory Report at c_bands before calling an iterative solver
           138 MiB given to the printing process from OS
            70 MiB allocation reported by mallinfo(arena+hblkhd)
        487488 MiB available memory on the node where the printing process lives
------------------
     ethr =  7.64E-06,  avg # of iterations =  1.0

     negative rho (up, down):  8.364E-01 1.060E-02

     total cpu time spent up to now is      507.4 secs

     WARNING: integrated charge=    32.00226927, expected=    32.00000000

     total energy              =    -913.19770286 Ry
     estimated scf accuracy    <       0.00750973 Ry

     total magnetization       =    -0.00 Bohr mag/cell
     absolute magnetization    =     2.37 Bohr mag/cell

     iteration # 97     ecut=    60.00 Ry     beta= 0.40
     Davidson diagonalization with overlap

---- Real-time Memory Report at c_bands before calling an iterative solver
           138 MiB given to the printing process from OS
            70 MiB allocation reported by mallinfo(arena+hblkhd)
        487487 MiB available memory on the node where the printing process lives
------------------
     ethr =  7.64E-06,  avg # of iterations =  1.0

     negative rho (up, down):  8.356E-01 1.070E-02

     total cpu time spent up to now is      511.9 secs

     WARNING: integrated charge=    32.00226963, expected=    32.00000000

     total energy              =    -913.19773318 Ry
     estimated scf accuracy    <       0.00760218 Ry

     total magnetization       =    -0.00 Bohr mag/cell
     absolute magnetization    =     2.36 Bohr mag/cell

     iteration # 98     ecut=    60.00 Ry     beta= 0.40
     Davidson diagonalization with overlap

---- Real-time Memory Report at c_bands before calling an iterative solver
           138 MiB given to the printing process from OS
            70 MiB allocation reported by mallinfo(arena+hblkhd)
        487486 MiB available memory on the node where the printing process lives
------------------
     ethr =  7.64E-06,  avg # of iterations =  1.0

     negative rho (up, down):  8.356E-01 1.081E-02

     total cpu time spent up to now is      516.5 secs

     WARNING: integrated charge=    32.00226949, expected=    32.00000000

     total energy              =    -913.19774606 Ry
     estimated scf accuracy    <       0.00673391 Ry

     total magnetization       =    -0.00 Bohr mag/cell
     absolute magnetization    =     2.35 Bohr mag/cell

     iteration # 99     ecut=    60.00 Ry     beta= 0.40
     Davidson diagonalization with overlap

---- Real-time Memory Report at c_bands before calling an iterative solver
           138 MiB given to the printing process from OS
            70 MiB allocation reported by mallinfo(arena+hblkhd)
        487482 MiB available memory on the node where the printing process lives
------------------
     ethr =  7.64E-06,  avg # of iterations =  1.0

     negative rho (up, down):  8.371E-01 1.078E-02

     total cpu time spent up to now is      521.0 secs

     WARNING: integrated charge=    32.00232198, expected=    32.00000000

     total energy              =    -913.19766940 Ry
     estimated scf accuracy    <       0.00675983 Ry

     total magnetization       =    -0.00 Bohr mag/cell
     absolute magnetization    =     2.35 Bohr mag/cell

     iteration #100     ecut=    60.00 Ry     beta= 0.40
     Davidson diagonalization with overlap

---- Real-time Memory Report at c_bands before calling an iterative solver
           138 MiB given to the printing process from OS
            70 MiB allocation reported by mallinfo(arena+hblkhd)
        487498 MiB available memory on the node where the printing process lives
------------------
     ethr =  7.64E-06,  avg # of iterations =  1.0

     negative rho (up, down):  8.354E-01 1.089E-02

     total cpu time spent up to now is      525.6 secs

     WARNING: integrated charge=    32.00228890, expected=    32.00000000

     total energy              =    -913.19773667 Ry
     estimated scf accuracy    <       0.00653607 Ry

     total magnetization       =    -0.00 Bohr mag/cell
     absolute magnetization    =     2.35 Bohr mag/cell

     End of self-consistent calculation

     convergence NOT achieved after 100 iterations: stopping

     Writing config to output data dir ./out/aiida.save/ :
     XML data file, charge density

     init_run     :      2.82s CPU      2.99s WALL (       1 calls)
     electrons    :    493.07s CPU    522.05s WALL (       1 calls)

     Called by init_run:
     wfcinit      :      1.45s CPU      1.53s WALL (       1 calls)
     wfcinit:atom :      0.01s CPU      0.01s WALL (      54 calls)
     wfcinit:wfcr :      1.42s CPU      1.49s WALL (      54 calls)
     potinit      :      0.51s CPU      0.57s WALL (       1 calls)
     hinit0       :      0.63s CPU      0.65s WALL (       1 calls)

     Called by electrons:
     c_bands      :    372.97s CPU    393.34s WALL (     100 calls)
     sum_band     :     81.18s CPU     85.16s WALL (     100 calls)
     v_of_rho     :     22.11s CPU     24.51s WALL (     101 calls)
     v_h          :      0.62s CPU      0.64s WALL (     101 calls)
     v_xc         :     21.49s CPU     23.87s WALL (     101 calls)
     newd         :      2.62s CPU      2.83s WALL (     101 calls)
     PAW_pot      :      9.68s CPU     11.42s WALL (     101 calls)
     mix_rho      :      1.44s CPU      1.50s WALL (     100 calls)

     Called by c_bands:
     init_us_2    :      3.61s CPU      3.77s WALL (   10854 calls)
     init_us_2:cp :      3.57s CPU      3.73s WALL (   10854 calls)
     cegterg      :    355.36s CPU    372.80s WALL (    5400 calls)

     Called by sum_band:
     sum_band:wei :      0.25s CPU      0.25s WALL (     100 calls)
     sum_band:loo :     74.99s CPU     78.71s WALL (     100 calls)
     sum_band:buf :      0.39s CPU      0.41s WALL (    5400 calls)
     sum_band:ini :      1.71s CPU      1.77s WALL (    5400 calls)
     sum_band:cal :      2.07s CPU      2.14s WALL (    5400 calls)
     sum_band:bec :      0.09s CPU      0.10s WALL (    5400 calls)
     addusdens    :      3.21s CPU      3.24s WALL (     100 calls)
                                        0.00s GPU  (     100 calls)
     addusd:skk   :      0.01s CPU      0.01s WALL (     300 calls)
                                        0.00s GPU  (     300 calls)

     Called by *egterg:
     cdiaghg      :      8.54s CPU      8.74s WALL (   18163 calls)
     cegterg:over :      3.96s CPU      4.04s WALL (   12763 calls)
     cegterg:upda :      2.63s CPU      2.70s WALL (   12763 calls)
     cegterg:last :      3.67s CPU      3.73s WALL (    8731 calls)
     h_psi        :    330.01s CPU    346.83s WALL (   18217 calls)
     s_psi        :      4.40s CPU      4.53s WALL (   18217 calls)
     g_psi        :      0.31s CPU      0.33s WALL (   12763 calls)

     Called by h_psi:
     h_psi:calbec :      7.15s CPU      7.41s WALL (   18217 calls)
     vloc_psi     :    317.23s CPU    333.54s WALL (   18217 calls)
     add_vuspsi   :      4.81s CPU      4.98s WALL (   18217 calls)

     General routines
     calbec       :      9.13s CPU      9.46s WALL (   23617 calls)
     fft          :      7.04s CPU      7.68s WALL (    2523 calls)
     ffts         :      0.63s CPU      0.66s WALL (     402 calls)
     fftw         :    317.59s CPU    335.04s WALL (  612640 calls)
     interpolate  :      1.16s CPU      1.29s WALL (     202 calls)
     davcio       :      0.00s CPU      0.04s WALL (      72 calls)

     Parallel routines

     PAW routines
     PAW_pot      :      9.68s CPU     11.42s WALL (     101 calls)
     PAW_symme    :      0.05s CPU      0.05s WALL (     201 calls)

     PWSCF        :   8m16.20s CPU   8m46.24s WALL


   This run was terminated on:  22:35:54  19Dec2023            

=------------------------------------------------------------------------------=
   JOB DONE.
=------------------------------------------------------------------------------=
