
     Program PWSCF v.7.2 starts on 28Nov2023 at 21:44:32 
        Git branch: develop
        Last git commit: 9055681be6fc8200e6fffe76ed5fda34c2696339
        Last git commit date: Wed Nov 8 16:29:39 2023 +0000
        Last git commit subject: Merge branch 'calbec_fix' into 'develop'

     This program is part of the open-source Quantum ESPRESSO suite
     for quantum simulation of materials; please cite
         "P. Giannozzi et al., J. Phys.:Condens. Matter 21 395502 (2009);
         "P. Giannozzi et al., J. Phys.:Condens. Matter 29 465901 (2017);
         "P. Giannozzi et al., J. Chem. Phys. 152 154105 (2020);
          URL http://www.quantum-espresso.org", 
     in publications or presentations arising from this work. More details at
     http://www.quantum-espresso.org/quote

     Parallel version (MPI), running on    56 processors

     MPI processes distributed on     1 nodes
     493931 MiB available memory on the printing compute node when the environment starts

     Reading input from aiida.in

     Current dimensions of program PWSCF are:
     Max number of different atomic species (ntypx) = 10
     Max number of k-points (npk) =  40000
     Max angular momentum in pseudopotentials (lmaxx) =  4
     Message from routine setup:
     using ibrav=0 with symmetry is DISCOURAGED, use correct ibrav instead

     K-points division:     npool     =       8
     R & G space division:  proc/nbgrp/npool/nimage =       7
     Subspace diagonalization in iterative solution of the eigenvalue problem:
     a serial algorithm will be used


     Parallelization info
     --------------------
     sticks:   dense  smooth     PW     G-vecs:    dense   smooth      PW
     Min        1033     517    142                57906    20478    2934
     Max        1033     517    144                57908    20479    2935
     Sum        7231    3619   1003               405349   143351   20539

     Using Slab Decomposition



     bravais-lattice index     =            0
     lattice parameter (alat)  =      14.7761  a.u.
     unit-cell volume          =    2281.2158 (a.u.)^3
     number of atoms/cell      =           10
     number of atomic types    =            3
     number of electrons       =        68.00
     number of Kohn-Sham states=           41
     kinetic-energy cutoff     =      60.0000  Ry
     charge density cutoff     =     480.0000  Ry
     scf convergence threshold =      2.0E-09
     mixing beta               =       0.4000
     number of iterations used =            8  plain     mixing
     Exchange-correlation= SLA  PW   PSX  PSC
                           (   1   4  10   8   0   0   0)

     celldm(1)=  14.776122  celldm(2)=   0.000000  celldm(3)=   0.000000
     celldm(4)=   0.000000  celldm(5)=   0.000000  celldm(6)=   0.000000

     crystal axes: (cart. coord. in units of alat)
               a(1) = (   0.000000   0.707107   0.707107 )  
               a(2) = (   0.707107   0.000000   0.707107 )  
               a(3) = (   0.707107   0.707107   0.000000 )  

     reciprocal axes: (cart. coord. in units 2 pi/alat)
               b(1) = ( -0.707107  0.707107  0.707107 )  
               b(2) = (  0.707107 -0.707107  0.707107 )  
               b(3) = (  0.707107  0.707107 -0.707107 )  


     PseudoPot. # 1 for Cl read from file:
     ./pseudo/cl_pbesol_v1.4.uspp.F.UPF
     MD5 check sum: ed6bbcf06f19043c0df9f6394706ff8f
     Pseudo is Ultrasoft + core correction, Zval =  7.0
     Generated by new atomic code, or converted to UPF format
     Using radial grid of  909 points,  6 beta functions with: 
                l(1) =   0
                l(2) =   0
                l(3) =   1
                l(4) =   1
                l(5) =   2
                l(6) =   2
     Q(r) pseudized with  8 coefficients,  rinner =    1.300   1.300   1.300
                                                       1.300   1.300

     PseudoPot. # 2 for N  read from file:
     ./pseudo/N.pbesol-theos.UPF
     MD5 check sum: 1b64827339d390a5a22afef3ff345c9d
     Pseudo is Ultrasoft + core correction, Zval =  5.0
     Generated using "atomic" code by A. Dal Corso  v.5.1
     Using radial grid of 1085 points,  4 beta functions with: 
                l(1) =   0
                l(2) =   0
                l(3) =   1
                l(4) =   1
     Q(r) pseudized with 0 coefficients 


     PseudoPot. # 3 for Y  read from file:
     ./pseudo/y_pbesol_v1.4.uspp.F.UPF
     MD5 check sum: dac24993bfd4491f22c7b9129ad9e93d
     Pseudo is Ultrasoft + core correction, Zval = 11.0
     Generated by new atomic code, or converted to UPF format
     Using radial grid of  885 points,  6 beta functions with: 
                l(1) =   0
                l(2) =   0
                l(3) =   1
                l(4) =   1
                l(5) =   2
                l(6) =   2
     Q(r) pseudized with  8 coefficients,  rinner =    1.200   1.200   1.200
                                                       1.200   1.200

     atomic species   valence    mass     pseudopotential
     Cl                7.00    35.45300     Cl( 1.00)
     N                 5.00    14.00670     N ( 1.00)
     Y                11.00    88.90585     Y ( 1.00)

     Starting magnetic structure 
     atomic species   magnetization
     Cl              0.100
     N               0.100
     Y               0.455

     48 Sym. Ops., with inversion, found


                                    s                        frac. trans.

      isym =  1     identity                                     

 cryst.   s( 1) = (     1          0          0      )
                  (     0          1          0      )
                  (     0          0          1      )

 cart.    s( 1) = (  1.0000000 -0.0000000  0.0000000 )
                  ( -0.0000000  1.0000000  0.0000000 )
                  ( -0.0000000  0.0000000  1.0000000 )


      isym =  2     180 deg rotation - cart. axis [0,0,1]        

 cryst.   s( 2) = (     0          1         -1      )
                  (     1          0         -1      )
                  (     0          0         -1      )

 cart.    s( 2) = ( -1.0000000  0.0000000  0.0000000 )
                  (  0.0000000 -1.0000000  0.0000000 )
                  (  0.0000000 -0.0000000  1.0000000 )


      isym =  3     180 deg rotation - cart. axis [0,1,0]        

 cryst.   s( 3) = (     0         -1          1      )
                  (     0         -1          0      )
                  (     1         -1          0      )

 cart.    s( 3) = ( -1.0000000 -0.0000000 -0.0000000 )
                  (  0.0000000  1.0000000 -0.0000000 )
                  (  0.0000000  0.0000000 -1.0000000 )


      isym =  4     180 deg rotation - cart. axis [1,0,0]        

 cryst.   s( 4) = (    -1          0          0      )
                  (    -1          0          1      )
                  (    -1          1          0      )

 cart.    s( 4) = (  1.0000000  0.0000000 -0.0000000 )
                  ( -0.0000000 -1.0000000 -0.0000000 )
                  ( -0.0000000 -0.0000000 -1.0000000 )


      isym =  5     180 deg rotation - cart. axis [1,1,0]        

 cryst.   s( 5) = (    -1          0          1      )
                  (     0         -1          1      )
                  (     0          0          1      )

 cart.    s( 5) = ( -0.0000000  1.0000000 -0.0000000 )
                  (  1.0000000 -0.0000000 -0.0000000 )
                  (  0.0000000 -0.0000000 -1.0000000 )


      isym =  6     180 deg rotation - cart. axis [1,-1,0]       

 cryst.   s( 6) = (     0         -1          0      )
                  (    -1          0          0      )
                  (     0          0         -1      )

 cart.    s( 6) = (  0.0000000 -1.0000000 -0.0000000 )
                  ( -1.0000000  0.0000000 -0.0000000 )
                  ( -0.0000000  0.0000000 -1.0000000 )


      isym =  7      90 deg rotation - cart. axis [0,0,-1]       

 cryst.   s( 7) = (     0          1          0      )
                  (     0          1         -1      )
                  (    -1          1          0      )

 cart.    s( 7) = (  0.0000000  1.0000000  0.0000000 )
                  ( -1.0000000 -0.0000000  0.0000000 )
                  ( -0.0000000 -0.0000000  1.0000000 )


      isym =  8      90 deg rotation - cart. axis [0,0,1]        

 cryst.   s( 8) = (     1          0         -1      )
                  (     1          0          0      )
                  (     1         -1          0      )

 cart.    s( 8) = ( -0.0000000 -1.0000000  0.0000000 )
                  (  1.0000000  0.0000000  0.0000000 )
                  (  0.0000000  0.0000000  1.0000000 )


      isym =  9     180 deg rotation - cart. axis [1,0,1]        

 cryst.   s( 9) = (    -1          1          0      )
                  (     0          1          0      )
                  (     0          1         -1      )

 cart.    s( 9) = (  0.0000000  0.0000000  1.0000000 )
                  (  0.0000000 -1.0000000 -0.0000000 )
                  (  1.0000000 -0.0000000 -0.0000000 )


      isym = 10     180 deg rotation - cart. axis [-1,0,1]       

 cryst.   s(10) = (     0          0         -1      )
                  (     0         -1          0      )
                  (    -1          0          0      )

 cart.    s(10) = ( -0.0000000  0.0000000 -1.0000000 )
                  ( -0.0000000 -1.0000000  0.0000000 )
                  ( -1.0000000 -0.0000000  0.0000000 )


      isym = 11      90 deg rotation - cart. axis [0,1,0]        

 cryst.   s(11) = (     0          0          1      )
                  (    -1          0          1      )
                  (     0         -1          1      )

 cart.    s(11) = ( -0.0000000 -0.0000000  1.0000000 )
                  ( -0.0000000  1.0000000 -0.0000000 )
                  ( -1.0000000  0.0000000 -0.0000000 )


      isym = 12      90 deg rotation - cart. axis [0,-1,0]       

 cryst.   s(12) = (     1         -1          0      )
                  (     1          0         -1      )
                  (     1          0          0      )

 cart.    s(12) = (  0.0000000 -0.0000000 -1.0000000 )
                  (  0.0000000  1.0000000  0.0000000 )
                  (  1.0000000  0.0000000  0.0000000 )


      isym = 13     180 deg rotation - cart. axis [0,1,1]        

 cryst.   s(13) = (     1          0          0      )
                  (     1         -1          0      )
                  (     1          0         -1      )

 cart.    s(13) = ( -1.0000000  0.0000000 -0.0000000 )
                  (  0.0000000  0.0000000  1.0000000 )
                  (  0.0000000  1.0000000  0.0000000 )


      isym = 14     180 deg rotation - cart. axis [0,1,-1]       

 cryst.   s(14) = (    -1          0          0      )
                  (     0          0         -1      )
                  (     0         -1          0      )

 cart.    s(14) = ( -1.0000000 -0.0000000  0.0000000 )
                  (  0.0000000 -0.0000000 -1.0000000 )
                  (  0.0000000 -1.0000000 -0.0000000 )


      isym = 15      90 deg rotation - cart. axis [-1,0,0]       

 cryst.   s(15) = (     0         -1          1      )
                  (     0          0          1      )
                  (    -1          0          1      )

 cart.    s(15) = (  1.0000000 -0.0000000 -0.0000000 )
                  ( -0.0000000 -0.0000000  1.0000000 )
                  ( -0.0000000 -1.0000000  0.0000000 )


      isym = 16      90 deg rotation - cart. axis [1,0,0]        

 cryst.   s(16) = (     0          1         -1      )
                  (    -1          1          0      )
                  (     0          1          0      )

 cart.    s(16) = (  1.0000000  0.0000000  0.0000000 )
                  ( -0.0000000  0.0000000 -1.0000000 )
                  ( -0.0000000  1.0000000 -0.0000000 )


      isym = 17     120 deg rotation - cart. axis [-1,-1,-1]     

 cryst.   s(17) = (     0          0          1      )
                  (     1          0          0      )
                  (     0          1          0      )

 cart.    s(17) = (  0.0000000  1.0000000 -0.0000000 )
                  (  0.0000000 -0.0000000  1.0000000 )
                  (  1.0000000 -0.0000000  0.0000000 )


      isym = 18     120 deg rotation - cart. axis [-1,1,1]       

 cryst.   s(18) = (     1         -1          0      )
                  (     0         -1          1      )
                  (     0         -1          0      )

 cart.    s(18) = ( -0.0000000 -1.0000000 -0.0000000 )
                  ( -0.0000000  0.0000000  1.0000000 )
                  ( -1.0000000  0.0000000  0.0000000 )


      isym = 19     120 deg rotation - cart. axis [1,1,-1]       

 cryst.   s(19) = (    -1          1          0      )
                  (    -1          0          0      )
                  (    -1          0          1      )

 cart.    s(19) = ( -0.0000000  1.0000000  0.0000000 )
                  ( -0.0000000 -0.0000000 -1.0000000 )
                  ( -1.0000000 -0.0000000 -0.0000000 )


      isym = 20     120 deg rotation - cart. axis [1,-1,1]       

 cryst.   s(20) = (     0          0         -1      )
                  (     0          1         -1      )
                  (     1          0         -1      )

 cart.    s(20) = (  0.0000000 -1.0000000  0.0000000 )
                  (  0.0000000  0.0000000 -1.0000000 )
                  (  1.0000000  0.0000000 -0.0000000 )


      isym = 21     120 deg rotation - cart. axis [1,1,1]        

 cryst.   s(21) = (     0          1          0      )
                  (     0          0          1      )
                  (     1          0          0      )

 cart.    s(21) = ( -0.0000000  0.0000000  1.0000000 )
                  (  1.0000000  0.0000000 -0.0000000 )
                  (  0.0000000  1.0000000 -0.0000000 )


      isym = 22     120 deg rotation - cart. axis [-1,1,-1]      

 cryst.   s(22) = (    -1          0          1      )
                  (    -1          1          0      )
                  (    -1          0          0      )

 cart.    s(22) = (  0.0000000 -0.0000000  1.0000000 )
                  ( -1.0000000 -0.0000000 -0.0000000 )
                  ( -0.0000000 -1.0000000 -0.0000000 )


      isym = 23     120 deg rotation - cart. axis [1,-1,-1]      

 cryst.   s(23) = (     1          0         -1      )
                  (     0          0         -1      )
                  (     0          1         -1      )

 cart.    s(23) = (  0.0000000  0.0000000 -1.0000000 )
                  ( -1.0000000  0.0000000  0.0000000 )
                  ( -0.0000000  1.0000000  0.0000000 )


      isym = 24     120 deg rotation - cart. axis [-1,-1,1]      

 cryst.   s(24) = (     0         -1          0      )
                  (     1         -1          0      )
                  (     0         -1          1      )

 cart.    s(24) = ( -0.0000000 -0.0000000 -1.0000000 )
                  (  1.0000000 -0.0000000  0.0000000 )
                  (  0.0000000 -1.0000000  0.0000000 )


      isym = 25     inversion                                    

 cryst.   s(25) = (    -1          0          0      )
                  (     0         -1          0      )
                  (     0          0         -1      )

 cart.    s(25) = ( -1.0000000  0.0000000 -0.0000000 )
                  (  0.0000000 -1.0000000 -0.0000000 )
                  (  0.0000000 -0.0000000 -1.0000000 )


      isym = 26     inv. 180 deg rotation - cart. axis [0,0,1]   

 cryst.   s(26) = (     0         -1          1      )
                  (    -1          0          1      )
                  (     0          0          1      )

 cart.    s(26) = (  1.0000000 -0.0000000 -0.0000000 )
                  ( -0.0000000  1.0000000 -0.0000000 )
                  ( -0.0000000  0.0000000 -1.0000000 )


      isym = 27     inv. 180 deg rotation - cart. axis [0,1,0]   

 cryst.   s(27) = (     0          1         -1      )
                  (     0          1          0      )
                  (    -1          1          0      )

 cart.    s(27) = (  1.0000000  0.0000000  0.0000000 )
                  ( -0.0000000 -1.0000000  0.0000000 )
                  ( -0.0000000 -0.0000000  1.0000000 )


      isym = 28     inv. 180 deg rotation - cart. axis [1,0,0]   

 cryst.   s(28) = (     1          0          0      )
                  (     1          0         -1      )
                  (     1         -1          0      )

 cart.    s(28) = ( -1.0000000 -0.0000000  0.0000000 )
                  (  0.0000000  1.0000000  0.0000000 )
                  (  0.0000000  0.0000000  1.0000000 )


      isym = 29     inv. 180 deg rotation - cart. axis [1,1,0]   

 cryst.   s(29) = (     1          0         -1      )
                  (     0          1         -1      )
                  (     0          0         -1      )

 cart.    s(29) = (  0.0000000 -1.0000000  0.0000000 )
                  ( -1.0000000  0.0000000  0.0000000 )
                  ( -0.0000000  0.0000000  1.0000000 )


      isym = 30     inv. 180 deg rotation - cart. axis [1,-1,0]  

 cryst.   s(30) = (     0          1          0      )
                  (     1          0          0      )
                  (     0          0          1      )

 cart.    s(30) = ( -0.0000000  1.0000000  0.0000000 )
                  (  1.0000000 -0.0000000  0.0000000 )
                  (  0.0000000 -0.0000000  1.0000000 )


      isym = 31     inv.  90 deg rotation - cart. axis [0,0,-1]  

 cryst.   s(31) = (     0         -1          0      )
                  (     0         -1          1      )
                  (     1         -1          0      )

 cart.    s(31) = ( -0.0000000 -1.0000000 -0.0000000 )
                  (  1.0000000  0.0000000 -0.0000000 )
                  (  0.0000000  0.0000000 -1.0000000 )


      isym = 32     inv.  90 deg rotation - cart. axis [0,0,1]   

 cryst.   s(32) = (    -1          0          1      )
                  (    -1          0          0      )
                  (    -1          1          0      )

 cart.    s(32) = (  0.0000000  1.0000000 -0.0000000 )
                  ( -1.0000000 -0.0000000 -0.0000000 )
                  ( -0.0000000 -0.0000000 -1.0000000 )


      isym = 33     inv. 180 deg rotation - cart. axis [1,0,1]   

 cryst.   s(33) = (     1         -1          0      )
                  (     0         -1          0      )
                  (     0         -1          1      )

 cart.    s(33) = ( -0.0000000 -0.0000000 -1.0000000 )
                  ( -0.0000000  1.0000000  0.0000000 )
                  ( -1.0000000  0.0000000  0.0000000 )


      isym = 34     inv. 180 deg rotation - cart. axis [-1,0,1]  

 cryst.   s(34) = (     0          0          1      )
                  (     0          1          0      )
                  (     1          0          0      )

 cart.    s(34) = (  0.0000000 -0.0000000  1.0000000 )
                  (  0.0000000  1.0000000 -0.0000000 )
                  (  1.0000000  0.0000000 -0.0000000 )


      isym = 35     inv.  90 deg rotation - cart. axis [0,1,0]   

 cryst.   s(35) = (     0          0         -1      )
                  (     1          0         -1      )
                  (     0          1         -1      )

 cart.    s(35) = (  0.0000000  0.0000000 -1.0000000 )
                  (  0.0000000 -1.0000000  0.0000000 )
                  (  1.0000000 -0.0000000  0.0000000 )


      isym = 36     inv.  90 deg rotation - cart. axis [0,-1,0]  

 cryst.   s(36) = (    -1          1          0      )
                  (    -1          0          1      )
                  (    -1          0          0      )

 cart.    s(36) = ( -0.0000000  0.0000000  1.0000000 )
                  ( -0.0000000 -1.0000000 -0.0000000 )
                  ( -1.0000000 -0.0000000 -0.0000000 )


      isym = 37     inv. 180 deg rotation - cart. axis [0,1,1]   

 cryst.   s(37) = (    -1          0          0      )
                  (    -1          1          0      )
                  (    -1          0          1      )

 cart.    s(37) = (  1.0000000 -0.0000000  0.0000000 )
                  ( -0.0000000 -0.0000000 -1.0000000 )
                  ( -0.0000000 -1.0000000 -0.0000000 )


      isym = 38     inv. 180 deg rotation - cart. axis [0,1,-1]  

 cryst.   s(38) = (     1          0          0      )
                  (     0          0          1      )
                  (     0          1          0      )

 cart.    s(38) = (  1.0000000  0.0000000 -0.0000000 )
                  ( -0.0000000  0.0000000  1.0000000 )
                  ( -0.0000000  1.0000000  0.0000000 )


      isym = 39     inv.  90 deg rotation - cart. axis [-1,0,0]  

 cryst.   s(39) = (     0          1         -1      )
                  (     0          0         -1      )
                  (     1          0         -1      )

 cart.    s(39) = ( -1.0000000  0.0000000  0.0000000 )
                  (  0.0000000  0.0000000 -1.0000000 )
                  (  0.0000000  1.0000000 -0.0000000 )


      isym = 40     inv.  90 deg rotation - cart. axis [1,0,0]   

 cryst.   s(40) = (     0         -1          1      )
                  (     1         -1          0      )
                  (     0         -1          0      )

 cart.    s(40) = ( -1.0000000 -0.0000000 -0.0000000 )
                  (  0.0000000 -0.0000000  1.0000000 )
                  (  0.0000000 -1.0000000  0.0000000 )


      isym = 41     inv. 120 deg rotation - cart. axis [-1,-1,-1]

 cryst.   s(41) = (     0          0         -1      )
                  (    -1          0          0      )
                  (     0         -1          0      )

 cart.    s(41) = ( -0.0000000 -1.0000000  0.0000000 )
                  ( -0.0000000  0.0000000 -1.0000000 )
                  ( -1.0000000  0.0000000 -0.0000000 )


      isym = 42     inv. 120 deg rotation - cart. axis [-1,1,1]  

 cryst.   s(42) = (    -1          1          0      )
                  (     0          1         -1      )
                  (     0          1          0      )

 cart.    s(42) = (  0.0000000  1.0000000  0.0000000 )
                  (  0.0000000 -0.0000000 -1.0000000 )
                  (  1.0000000 -0.0000000 -0.0000000 )


      isym = 43     inv. 120 deg rotation - cart. axis [1,1,-1]  

 cryst.   s(43) = (     1         -1          0      )
                  (     1          0          0      )
                  (     1          0         -1      )

 cart.    s(43) = (  0.0000000 -1.0000000 -0.0000000 )
                  (  0.0000000  0.0000000  1.0000000 )
                  (  1.0000000  0.0000000  0.0000000 )


      isym = 44     inv. 120 deg rotation - cart. axis [1,-1,1]  

 cryst.   s(44) = (     0          0          1      )
                  (     0         -1          1      )
                  (    -1          0          1      )

 cart.    s(44) = ( -0.0000000  1.0000000 -0.0000000 )
                  ( -0.0000000 -0.0000000  1.0000000 )
                  ( -1.0000000 -0.0000000  0.0000000 )


      isym = 45     inv. 120 deg rotation - cart. axis [1,1,1]   

 cryst.   s(45) = (     0         -1          0      )
                  (     0          0         -1      )
                  (    -1          0          0      )

 cart.    s(45) = (  0.0000000 -0.0000000 -1.0000000 )
                  ( -1.0000000 -0.0000000  0.0000000 )
                  ( -0.0000000 -1.0000000  0.0000000 )


      isym = 46     inv. 120 deg rotation - cart. axis [-1,1,-1] 

 cryst.   s(46) = (     1          0         -1      )
                  (     1         -1          0      )
                  (     1          0          0      )

 cart.    s(46) = ( -0.0000000  0.0000000 -1.0000000 )
                  (  1.0000000  0.0000000  0.0000000 )
                  (  0.0000000  1.0000000  0.0000000 )


      isym = 47     inv. 120 deg rotation - cart. axis [1,-1,-1] 

 cryst.   s(47) = (    -1          0          1      )
                  (     0          0          1      )
                  (     0         -1          1      )

 cart.    s(47) = ( -0.0000000 -0.0000000  1.0000000 )
                  (  1.0000000 -0.0000000 -0.0000000 )
                  (  0.0000000 -1.0000000 -0.0000000 )


      isym = 48     inv. 120 deg rotation - cart. axis [-1,-1,1] 

 cryst.   s(48) = (     0          1          0      )
                  (    -1          1          0      )
                  (     0          1         -1      )

 cart.    s(48) = (  0.0000000  0.0000000  1.0000000 )
                  ( -1.0000000  0.0000000 -0.0000000 )
                  ( -0.0000000  1.0000000 -0.0000000 )


   Cartesian axes

     site n.     atom                  positions (alat units)
         1        Y      tau(   1) = (   0.0000000   0.0000000   0.0000000  )
         2        N      tau(   2) = (   0.3535534   0.3535534   1.0606602  )
         3        N      tau(   3) = (   0.3535534   1.0606602   1.0606602  )
         4        N      tau(   4) = (   0.7071068   0.0000000   0.0000000  )
         5        Cl     tau(   5) = (   1.1172287   0.0000000   0.0000000  )
         6        Cl     tau(   6) = (   0.7071068   0.4101219  -0.0000000  )
         7        Cl     tau(   7) = (  -0.0000000  -0.0000000   1.1172287  )
         8        Cl     tau(   8) = (   0.7071068   0.0000000   1.0040916  )
         9        Cl     tau(   9) = (   0.7071068   1.0040916   0.0000000  )
        10        Cl     tau(  10) = (   0.2969848  -0.0000000  -0.0000000  )

   Crystallographic axes

     site n.     atom                  positions (cryst. coord.)
         1        Y      tau(   1) = (  0.0000000  0.0000000  0.0000000  )
         2        N      tau(   2) = (  0.7500000  0.7500000 -0.2500000  )
         3        N      tau(   3) = (  1.2500000  0.2500000  0.2500000  )
         4        N      tau(   4) = ( -0.5000000  0.5000000  0.5000000  )
         5        Cl     tau(   5) = ( -0.7900000  0.7900000  0.7900000  )
         6        Cl     tau(   6) = ( -0.2100000  0.2100000  0.7900000  )
         7        Cl     tau(   7) = (  0.7900000  0.7900000 -0.7900000  )
         8        Cl     tau(   8) = (  0.2100000  1.2100000 -0.2100000  )
         9        Cl     tau(   9) = (  0.2100000 -0.2100000  1.2100000  )
        10        Cl     tau(  10) = ( -0.2100000  0.2100000  0.2100000  )

     number of k points=    20  Marzari-Vanderbilt smearing, width (Ry)=  0.0200
                       cart. coord. in units 2pi/alat
        k(    1) = (   0.0000000   0.0000000   0.0000000), wk =   0.0029155
        k(    2) = (   0.1010153   0.1010153  -0.1010153), wk =   0.0233236
        k(    3) = (   0.2020305   0.2020305  -0.2020305), wk =   0.0233236
        k(    4) = (   0.3030458   0.3030458  -0.3030458), wk =   0.0233236
        k(    5) = (   0.2020305  -0.0000000   0.0000000), wk =   0.0174927
        k(    6) = (   0.3030458   0.1010153  -0.1010153), wk =   0.0699708
        k(    7) = (   0.4040610   0.2020305  -0.2020305), wk =   0.0699708
        k(    8) = (  -0.2020305  -0.4040610   0.4040610), wk =   0.0699708
        k(    9) = (  -0.1010153  -0.3030458   0.3030458), wk =   0.0699708
        k(   10) = (  -0.0000000  -0.2020305   0.2020305), wk =   0.0349854
        k(   11) = (   0.4040610  -0.0000000   0.0000000), wk =   0.0174927
        k(   12) = (   0.5050763   0.1010153  -0.1010153), wk =   0.0699708
        k(   13) = (  -0.1010153  -0.5050763   0.5050763), wk =   0.0699708
        k(   14) = (   0.0000000  -0.4040610   0.4040610), wk =   0.0349854
        k(   15) = (   0.6060915  -0.0000000   0.0000000), wk =   0.0174927
        k(   16) = (  -0.0000000  -0.6060915   0.6060915), wk =   0.0349854
        k(   17) = (   0.4040610   0.2020305   0.0000000), wk =   0.0699708
        k(   18) = (  -0.2020305  -0.4040610   0.6060915), wk =   0.1399417
        k(   19) = (  -0.1010153  -0.5050763   0.7071068), wk =   0.0699708
        k(   20) = (   0.0000000  -0.4040610   0.6060915), wk =   0.0699708

                       cryst. coord.
        k(    1) = (   0.0000000   0.0000000   0.0000000), wk =   0.0029155
        k(    2) = (   0.0000000   0.0000000   0.1428571), wk =   0.0233236
        k(    3) = (   0.0000000   0.0000000   0.2857143), wk =   0.0233236
        k(    4) = (  -0.0000000  -0.0000000   0.4285714), wk =   0.0233236
        k(    5) = (  -0.0000000   0.1428571   0.1428571), wk =   0.0174927
        k(    6) = (  -0.0000000   0.1428571   0.2857143), wk =   0.0699708
        k(    7) = (  -0.0000000   0.1428571   0.4285714), wk =   0.0699708
        k(    8) = (  -0.0000000   0.1428571  -0.4285714), wk =   0.0699708
        k(    9) = (   0.0000000   0.1428571  -0.2857143), wk =   0.0699708
        k(   10) = (  -0.0000000   0.1428571  -0.1428571), wk =   0.0349854
        k(   11) = (  -0.0000000   0.2857143   0.2857143), wk =   0.0174927
        k(   12) = (  -0.0000000   0.2857143   0.4285714), wk =   0.0699708
        k(   13) = (  -0.0000000   0.2857143  -0.4285714), wk =   0.0699708
        k(   14) = (  -0.0000000   0.2857143  -0.2857143), wk =   0.0349854
        k(   15) = (   0.0000000   0.4285714   0.4285714), wk =   0.0174927
        k(   16) = (   0.0000000   0.4285714  -0.4285714), wk =   0.0349854
        k(   17) = (   0.1428571   0.2857143   0.4285714), wk =   0.0699708
        k(   18) = (   0.1428571   0.2857143  -0.4285714), wk =   0.1399417
        k(   19) = (   0.1428571   0.4285714  -0.4285714), wk =   0.0699708
        k(   20) = (   0.1428571   0.4285714  -0.2857143), wk =   0.0699708

     Dense  grid:   405349 G-vectors     FFT dimensions: ( 108, 108, 108)

     Smooth grid:   143351 G-vectors     FFT dimensions: (  75,  75,  75)

     Dynamical RAM for                 wfc:       1.60 MB

     Dynamical RAM for     wfc (w. buffer):       9.60 MB

     Dynamical RAM for           str. fact:       2.65 MB

     Dynamical RAM for           local pot:       0.00 MB

     Dynamical RAM for          nlocal pot:       5.85 MB

     Dynamical RAM for                qrad:       5.27 MB

     Dynamical RAM for          rho,v,vnew:      13.84 MB

     Dynamical RAM for               rhoin:       4.61 MB

     Dynamical RAM for            rho*nmix:      28.28 MB

     Dynamical RAM for           G-vectors:       3.47 MB

     Dynamical RAM for          h,s,v(r/c):       0.31 MB

     Dynamical RAM for          <psi|beta>:       0.09 MB

     Dynamical RAM for                 psi:       3.20 MB

     Dynamical RAM for                hpsi:       3.20 MB

     Dynamical RAM for                spsi:       3.20 MB

     Dynamical RAM for      wfcinit/wfcrot:       3.88 MB

     Dynamical RAM for           addusdens:      22.86 MB

     Dynamical RAM for          addusforce:      23.24 MB

     Dynamical RAM for         addusstress:      23.14 MB

     Estimated static dynamical RAM per process >      57.38 MB

     Estimated max dynamical RAM per process >     108.90 MB

     Estimated total dynamical RAM >       4.60 GB
     Generating pointlists ...
     new r_m :   0.1225 (alat units)  1.8102 (a.u.) for type    1
     new r_m :   0.1692 (alat units)  2.4998 (a.u.) for type    2
     new r_m :   0.1225 (alat units)  1.8102 (a.u.) for type    3

     Initial potential from superposition of free atoms

     starting charge      67.9958, renormalised to      68.0000

     negative rho (up, down):  4.901E-02 4.112E-02
     Starting wfcs are   49 randomized atomic wfcs

     total cpu time spent up to now is        2.5 secs

     per-process dynamical memory:    88.3 Mb

     Self-consistent Calculation

     iteration #  1     ecut=    60.00 Ry     beta= 0.40
     Davidson diagonalization with overlap

---- Real-time Memory Report at c_bands before calling an iterative solver
           115 MiB given to the printing process from OS
            86 MiB allocation reported by mallinfo(arena+hblkhd)
        489239 MiB available memory on the node where the printing process lives
------------------
     ethr =  1.00E-02,  avg # of iterations =  2.9

     negative rho (up, down):  4.851E-02 4.379E-02

     total cpu time spent up to now is        4.6 secs

     total energy              =    -350.07015970 Ry
     estimated scf accuracy    <       2.22124238 Ry

     total magnetization       =     6.00 Bohr mag/cell
     absolute magnetization    =     6.24 Bohr mag/cell

     iteration #  2     ecut=    60.00 Ry     beta= 0.40
     Davidson diagonalization with overlap

---- Real-time Memory Report at c_bands before calling an iterative solver
           148 MiB given to the printing process from OS
           118 MiB allocation reported by mallinfo(arena+hblkhd)
        487639 MiB available memory on the node where the printing process lives
------------------
     ethr =  3.27E-03,  avg # of iterations =  2.0

     negative rho (up, down):  4.785E-02 4.329E-02

     total cpu time spent up to now is        6.9 secs

     total energy              =    -349.67362888 Ry
     estimated scf accuracy    <      22.92902582 Ry

     total magnetization       =     3.69 Bohr mag/cell
     absolute magnetization    =     4.00 Bohr mag/cell

     iteration #  3     ecut=    60.00 Ry     beta= 0.40
     Davidson diagonalization with overlap

---- Real-time Memory Report at c_bands before calling an iterative solver
           150 MiB given to the printing process from OS
           119 MiB allocation reported by mallinfo(arena+hblkhd)
        487577 MiB available memory on the node where the printing process lives
------------------
     ethr =  3.27E-03,  avg # of iterations =  2.0

     negative rho (up, down):  4.777E-02 4.335E-02

     total cpu time spent up to now is        9.0 secs

     total energy              =    -350.73404536 Ry
     estimated scf accuracy    <       8.44170038 Ry

     total magnetization       =     2.09 Bohr mag/cell
     absolute magnetization    =     2.45 Bohr mag/cell

     iteration #  4     ecut=    60.00 Ry     beta= 0.40
     Davidson diagonalization with overlap

---- Real-time Memory Report at c_bands before calling an iterative solver
           152 MiB given to the printing process from OS
           120 MiB allocation reported by mallinfo(arena+hblkhd)
        487545 MiB available memory on the node where the printing process lives
------------------
     ethr =  3.27E-03,  avg # of iterations =  1.0

     negative rho (up, down):  4.659E-02 4.404E-02

     total cpu time spent up to now is       10.9 secs

     total energy              =    -351.12649731 Ry
     estimated scf accuracy    <       0.48735744 Ry

     total magnetization       =     8.31 Bohr mag/cell
     absolute magnetization    =     8.38 Bohr mag/cell

     iteration #  5     ecut=    60.00 Ry     beta= 0.40
     Davidson diagonalization with overlap

---- Real-time Memory Report at c_bands before calling an iterative solver
           154 MiB given to the printing process from OS
           121 MiB allocation reported by mallinfo(arena+hblkhd)
        487513 MiB available memory on the node where the printing process lives
------------------
     ethr =  7.17E-04,  avg # of iterations =  1.0

     negative rho (up, down):  4.649E-02 4.407E-02

     total cpu time spent up to now is       12.8 secs

     total energy              =    -351.22438326 Ry
     estimated scf accuracy    <       0.16877454 Ry

     total magnetization       =    10.23 Bohr mag/cell
     absolute magnetization    =    10.25 Bohr mag/cell

     iteration #  6     ecut=    60.00 Ry     beta= 0.40
     Davidson diagonalization with overlap

---- Real-time Memory Report at c_bands before calling an iterative solver
           155 MiB given to the printing process from OS
           123 MiB allocation reported by mallinfo(arena+hblkhd)
        487490 MiB available memory on the node where the printing process lives
------------------
     ethr =  2.48E-04,  avg # of iterations =  1.0

     negative rho (up, down):  4.605E-02 4.440E-02

     total cpu time spent up to now is       14.7 secs

     total energy              =    -351.31547815 Ry
     estimated scf accuracy    <       0.08052545 Ry

     total magnetization       =    10.11 Bohr mag/cell
     absolute magnetization    =    10.16 Bohr mag/cell

     iteration #  7     ecut=    60.00 Ry     beta= 0.40
     Davidson diagonalization with overlap

---- Real-time Memory Report at c_bands before calling an iterative solver
           157 MiB given to the printing process from OS
           124 MiB allocation reported by mallinfo(arena+hblkhd)
        487463 MiB available memory on the node where the printing process lives
------------------
     ethr =  1.18E-04,  avg # of iterations =  1.9

     negative rho (up, down):  4.594E-02 4.451E-02

     total cpu time spent up to now is       16.7 secs

     total energy              =    -351.34071209 Ry
     estimated scf accuracy    <       0.04273143 Ry

     total magnetization       =    10.20 Bohr mag/cell
     absolute magnetization    =    10.38 Bohr mag/cell

     iteration #  8     ecut=    60.00 Ry     beta= 0.40
     Davidson diagonalization with overlap

---- Real-time Memory Report at c_bands before calling an iterative solver
           158 MiB given to the printing process from OS
           125 MiB allocation reported by mallinfo(arena+hblkhd)
        487451 MiB available memory on the node where the printing process lives
------------------
     ethr =  6.28E-05,  avg # of iterations =  1.8

     negative rho (up, down):  4.596E-02 4.448E-02

     total cpu time spent up to now is       18.8 secs

     total energy              =    -351.34223310 Ry
     estimated scf accuracy    <       0.02944170 Ry

     total magnetization       =    10.20 Bohr mag/cell
     absolute magnetization    =    10.51 Bohr mag/cell

     iteration #  9     ecut=    60.00 Ry     beta= 0.40
     Davidson diagonalization with overlap

---- Real-time Memory Report at c_bands before calling an iterative solver
           160 MiB given to the printing process from OS
           126 MiB allocation reported by mallinfo(arena+hblkhd)
        487430 MiB available memory on the node where the printing process lives
------------------
     ethr =  4.33E-05,  avg # of iterations =  1.2

     negative rho (up, down):  4.597E-02 4.445E-02

     total cpu time spent up to now is       20.8 secs

     total energy              =    -351.34084639 Ry
     estimated scf accuracy    <       0.02002882 Ry

     total magnetization       =    10.19 Bohr mag/cell
     absolute magnetization    =    10.58 Bohr mag/cell

     iteration # 10     ecut=    60.00 Ry     beta= 0.40
     Davidson diagonalization with overlap

---- Real-time Memory Report at c_bands before calling an iterative solver
           161 MiB given to the printing process from OS
           128 MiB allocation reported by mallinfo(arena+hblkhd)
        487415 MiB available memory on the node where the printing process lives
------------------
     ethr =  2.95E-05,  avg # of iterations =  1.3

     negative rho (up, down):  4.601E-02 4.444E-02

     total cpu time spent up to now is       22.8 secs

     total energy              =    -351.34009664 Ry
     estimated scf accuracy    <       0.01394603 Ry

     total magnetization       =    10.15 Bohr mag/cell
     absolute magnetization    =    10.60 Bohr mag/cell

     iteration # 11     ecut=    60.00 Ry     beta= 0.40
     Davidson diagonalization with overlap

---- Real-time Memory Report at c_bands before calling an iterative solver
           162 MiB given to the printing process from OS
           128 MiB allocation reported by mallinfo(arena+hblkhd)
        487405 MiB available memory on the node where the printing process lives
------------------
     ethr =  2.05E-05,  avg # of iterations =  1.4

     negative rho (up, down):  4.609E-02 4.441E-02

     total cpu time spent up to now is       24.8 secs

     total energy              =    -351.33742924 Ry
     estimated scf accuracy    <       0.01224660 Ry

     total magnetization       =    10.12 Bohr mag/cell
     absolute magnetization    =    10.59 Bohr mag/cell

     iteration # 12     ecut=    60.00 Ry     beta= 0.40
     Davidson diagonalization with overlap

---- Real-time Memory Report at c_bands before calling an iterative solver
           162 MiB given to the printing process from OS
           128 MiB allocation reported by mallinfo(arena+hblkhd)
        487401 MiB available memory on the node where the printing process lives
------------------
     ethr =  1.80E-05,  avg # of iterations =  1.1

     negative rho (up, down):  4.632E-02 4.429E-02

     total cpu time spent up to now is       26.7 secs

     total energy              =    -351.33208665 Ry
     estimated scf accuracy    <       0.01396014 Ry

     total magnetization       =    10.04 Bohr mag/cell
     absolute magnetization    =    10.56 Bohr mag/cell

     iteration # 13     ecut=    60.00 Ry     beta= 0.40
     Davidson diagonalization with overlap

---- Real-time Memory Report at c_bands before calling an iterative solver
           162 MiB given to the printing process from OS
           128 MiB allocation reported by mallinfo(arena+hblkhd)
        487395 MiB available memory on the node where the printing process lives
------------------
     ethr =  1.80E-05,  avg # of iterations =  3.7

     negative rho (up, down):  4.602E-02 4.445E-02

     total cpu time spent up to now is       29.2 secs

     total energy              =    -351.29849957 Ry
     estimated scf accuracy    <       0.17912271 Ry

     total magnetization       =     8.92 Bohr mag/cell
     absolute magnetization    =     9.60 Bohr mag/cell

     iteration # 14     ecut=    60.00 Ry     beta= 0.40
     Davidson diagonalization with overlap

---- Real-time Memory Report at c_bands before calling an iterative solver
           162 MiB given to the printing process from OS
           128 MiB allocation reported by mallinfo(arena+hblkhd)
        487392 MiB available memory on the node where the printing process lives
------------------
     ethr =  1.80E-05,  avg # of iterations =  3.5

     negative rho (up, down):  4.603E-02 4.447E-02

     total cpu time spent up to now is       31.6 secs

     total energy              =    -351.33733497 Ry
     estimated scf accuracy    <       0.00768679 Ry

     total magnetization       =    10.12 Bohr mag/cell
     absolute magnetization    =    10.62 Bohr mag/cell

     iteration # 15     ecut=    60.00 Ry     beta= 0.40
     Davidson diagonalization with overlap

---- Real-time Memory Report at c_bands before calling an iterative solver
           162 MiB given to the printing process from OS
           128 MiB allocation reported by mallinfo(arena+hblkhd)
        487387 MiB available memory on the node where the printing process lives
------------------
     ethr =  1.13E-05,  avg # of iterations =  1.4

     negative rho (up, down):  4.607E-02 4.447E-02

     total cpu time spent up to now is       33.7 secs

     total energy              =    -351.33630455 Ry
     estimated scf accuracy    <       0.00738628 Ry

     total magnetization       =    10.16 Bohr mag/cell
     absolute magnetization    =    10.64 Bohr mag/cell

     iteration # 16     ecut=    60.00 Ry     beta= 0.40
     Davidson diagonalization with overlap

---- Real-time Memory Report at c_bands before calling an iterative solver
           162 MiB given to the printing process from OS
           128 MiB allocation reported by mallinfo(arena+hblkhd)
        487388 MiB available memory on the node where the printing process lives
------------------
     ethr =  1.09E-05,  avg # of iterations =  1.0

     negative rho (up, down):  4.612E-02 4.445E-02

     total cpu time spent up to now is       35.6 secs

     total energy              =    -351.33454279 Ry
     estimated scf accuracy    <       0.00570946 Ry

     total magnetization       =    10.18 Bohr mag/cell
     absolute magnetization    =    10.67 Bohr mag/cell

     iteration # 17     ecut=    60.00 Ry     beta= 0.40
     Davidson diagonalization with overlap

---- Real-time Memory Report at c_bands before calling an iterative solver
           162 MiB given to the printing process from OS
           128 MiB allocation reported by mallinfo(arena+hblkhd)
        487383 MiB available memory on the node where the printing process lives
------------------
     ethr =  8.40E-06,  avg # of iterations =  2.2

     negative rho (up, down):  4.611E-02 4.445E-02

     total cpu time spent up to now is       37.7 secs

     total energy              =    -351.33485817 Ry
     estimated scf accuracy    <       0.01190406 Ry

     total magnetization       =    10.29 Bohr mag/cell
     absolute magnetization    =    10.81 Bohr mag/cell

     iteration # 18     ecut=    60.00 Ry     beta= 0.40
     Davidson diagonalization with overlap

---- Real-time Memory Report at c_bands before calling an iterative solver
           162 MiB given to the printing process from OS
           128 MiB allocation reported by mallinfo(arena+hblkhd)
        487386 MiB available memory on the node where the printing process lives
------------------
     ethr =  8.40E-06,  avg # of iterations =  1.0

     negative rho (up, down):  4.615E-02 4.444E-02

     total cpu time spent up to now is       39.6 secs

     total energy              =    -351.33365815 Ry
     estimated scf accuracy    <       0.00800579 Ry

     total magnetization       =    10.25 Bohr mag/cell
     absolute magnetization    =    10.76 Bohr mag/cell

     iteration # 19     ecut=    60.00 Ry     beta= 0.40
     Davidson diagonalization with overlap

---- Real-time Memory Report at c_bands before calling an iterative solver
           163 MiB given to the printing process from OS
           128 MiB allocation reported by mallinfo(arena+hblkhd)
        487381 MiB available memory on the node where the printing process lives
------------------
     ethr =  8.40E-06,  avg # of iterations =  1.0

     negative rho (up, down):  4.613E-02 4.443E-02

     total cpu time spent up to now is       41.5 secs

     total energy              =    -351.33450904 Ry
     estimated scf accuracy    <       0.01572845 Ry

     total magnetization       =    10.35 Bohr mag/cell
     absolute magnetization    =    10.87 Bohr mag/cell

     iteration # 20     ecut=    60.00 Ry     beta= 0.40
     Davidson diagonalization with overlap

---- Real-time Memory Report at c_bands before calling an iterative solver
           163 MiB given to the printing process from OS
           128 MiB allocation reported by mallinfo(arena+hblkhd)
        487379 MiB available memory on the node where the printing process lives
------------------
     ethr =  8.40E-06,  avg # of iterations =  1.0

     negative rho (up, down):  4.610E-02 4.446E-02

     total cpu time spent up to now is       43.4 secs

     total energy              =    -351.33388455 Ry
     estimated scf accuracy    <       0.00990191 Ry

     total magnetization       =    10.31 Bohr mag/cell
     absolute magnetization    =    10.82 Bohr mag/cell

     iteration # 21     ecut=    60.00 Ry     beta= 0.40
     Davidson diagonalization with overlap

---- Real-time Memory Report at c_bands before calling an iterative solver
           163 MiB given to the printing process from OS
           128 MiB allocation reported by mallinfo(arena+hblkhd)
        487374 MiB available memory on the node where the printing process lives
------------------
     ethr =  8.40E-06,  avg # of iterations =  1.0

     negative rho (up, down):  4.615E-02 4.442E-02

     total cpu time spent up to now is       45.3 secs

     total energy              =    -351.33377589 Ry
     estimated scf accuracy    <       0.01251118 Ry

     total magnetization       =    10.26 Bohr mag/cell
     absolute magnetization    =    10.80 Bohr mag/cell

     iteration # 22     ecut=    60.00 Ry     beta= 0.40
     Davidson diagonalization with overlap

---- Real-time Memory Report at c_bands before calling an iterative solver
           163 MiB given to the printing process from OS
           128 MiB allocation reported by mallinfo(arena+hblkhd)
        487374 MiB available memory on the node where the printing process lives
------------------
     ethr =  8.40E-06,  avg # of iterations =  1.1

     negative rho (up, down):  4.612E-02 4.443E-02

     total cpu time spent up to now is       47.3 secs

     total energy              =    -351.33498324 Ry
     estimated scf accuracy    <       0.01340511 Ry

     total magnetization       =    10.36 Bohr mag/cell
     absolute magnetization    =    10.88 Bohr mag/cell

     iteration # 23     ecut=    60.00 Ry     beta= 0.40
     Davidson diagonalization with overlap

---- Real-time Memory Report at c_bands before calling an iterative solver
           163 MiB given to the printing process from OS
           128 MiB allocation reported by mallinfo(arena+hblkhd)
        487373 MiB available memory on the node where the printing process lives
------------------
     ethr =  8.40E-06,  avg # of iterations =  1.0

     negative rho (up, down):  4.591E-02 4.461E-02

     total cpu time spent up to now is       49.2 secs

     total energy              =    -351.33635030 Ry
     estimated scf accuracy    <       0.00749913 Ry

     total magnetization       =    10.25 Bohr mag/cell
     absolute magnetization    =    10.79 Bohr mag/cell

     iteration # 24     ecut=    60.00 Ry     beta= 0.40
     Davidson diagonalization with overlap

---- Real-time Memory Report at c_bands before calling an iterative solver
           163 MiB given to the printing process from OS
           128 MiB allocation reported by mallinfo(arena+hblkhd)
        487374 MiB available memory on the node where the printing process lives
------------------
     ethr =  8.40E-06,  avg # of iterations =  1.5

     negative rho (up, down):  4.580E-02 4.470E-02

     total cpu time spent up to now is       51.2 secs

     total energy              =    -351.33744055 Ry
     estimated scf accuracy    <       0.00461670 Ry

     total magnetization       =     9.77 Bohr mag/cell
     absolute magnetization    =    10.43 Bohr mag/cell

     iteration # 25     ecut=    60.00 Ry     beta= 0.40
     Davidson diagonalization with overlap

---- Real-time Memory Report at c_bands before calling an iterative solver
           163 MiB given to the printing process from OS
           128 MiB allocation reported by mallinfo(arena+hblkhd)
        487372 MiB available memory on the node where the printing process lives
------------------
     ethr =  6.79E-06,  avg # of iterations =  1.1

     negative rho (up, down):  4.571E-02 4.476E-02

     total cpu time spent up to now is       53.2 secs

     total energy              =    -351.33949860 Ry
     estimated scf accuracy    <       0.00641963 Ry

     total magnetization       =     9.54 Bohr mag/cell
     absolute magnetization    =    10.28 Bohr mag/cell

     iteration # 26     ecut=    60.00 Ry     beta= 0.40
     Davidson diagonalization with overlap

---- Real-time Memory Report at c_bands before calling an iterative solver
           163 MiB given to the printing process from OS
           128 MiB allocation reported by mallinfo(arena+hblkhd)
        487373 MiB available memory on the node where the printing process lives
------------------
     ethr =  6.79E-06,  avg # of iterations =  1.9

     negative rho (up, down):  4.577E-02 4.472E-02

     total cpu time spent up to now is       55.2 secs

     total energy              =    -351.33940820 Ry
     estimated scf accuracy    <       0.01094744 Ry

     total magnetization       =     9.37 Bohr mag/cell
     absolute magnetization    =    10.18 Bohr mag/cell

     iteration # 27     ecut=    60.00 Ry     beta= 0.40
     Davidson diagonalization with overlap

---- Real-time Memory Report at c_bands before calling an iterative solver
           163 MiB given to the printing process from OS
           128 MiB allocation reported by mallinfo(arena+hblkhd)
        487372 MiB available memory on the node where the printing process lives
------------------
     ethr =  6.79E-06,  avg # of iterations =  1.1

     negative rho (up, down):  4.569E-02 4.477E-02

     total cpu time spent up to now is       57.2 secs

     total energy              =    -351.34027286 Ry
     estimated scf accuracy    <       0.01048725 Ry

     total magnetization       =     9.49 Bohr mag/cell
     absolute magnetization    =    10.25 Bohr mag/cell

     iteration # 28     ecut=    60.00 Ry     beta= 0.40
     Davidson diagonalization with overlap

---- Real-time Memory Report at c_bands before calling an iterative solver
           163 MiB given to the printing process from OS
           128 MiB allocation reported by mallinfo(arena+hblkhd)
        487369 MiB available memory on the node where the printing process lives
------------------
     ethr =  6.79E-06,  avg # of iterations =  1.9

     negative rho (up, down):  4.572E-02 4.476E-02

     total cpu time spent up to now is       59.3 secs

     total energy              =    -351.34108522 Ry
     estimated scf accuracy    <       0.01229731 Ry

     total magnetization       =     9.34 Bohr mag/cell
     absolute magnetization    =    10.17 Bohr mag/cell

     iteration # 29     ecut=    60.00 Ry     beta= 0.40
     Davidson diagonalization with overlap

---- Real-time Memory Report at c_bands before calling an iterative solver
           163 MiB given to the printing process from OS
           128 MiB allocation reported by mallinfo(arena+hblkhd)
        487368 MiB available memory on the node where the printing process lives
------------------
     ethr =  6.79E-06,  avg # of iterations =  1.1

     negative rho (up, down):  4.566E-02 4.482E-02

     total cpu time spent up to now is       61.3 secs

     total energy              =    -351.33581424 Ry
     estimated scf accuracy    <       0.01406917 Ry

     total magnetization       =     9.40 Bohr mag/cell
     absolute magnetization    =    10.20 Bohr mag/cell

     iteration # 30     ecut=    60.00 Ry     beta= 0.40
     Davidson diagonalization with overlap

---- Real-time Memory Report at c_bands before calling an iterative solver
           163 MiB given to the printing process from OS
           128 MiB allocation reported by mallinfo(arena+hblkhd)
        487369 MiB available memory on the node where the printing process lives
------------------
     ethr =  6.79E-06,  avg # of iterations =  2.0

     negative rho (up, down):  4.578E-02 4.475E-02

     total cpu time spent up to now is       63.4 secs

     total energy              =    -351.33417691 Ry
     estimated scf accuracy    <       0.00490494 Ry

     total magnetization       =     9.25 Bohr mag/cell
     absolute magnetization    =    10.12 Bohr mag/cell

     iteration # 31     ecut=    60.00 Ry     beta= 0.40
     Davidson diagonalization with overlap

---- Real-time Memory Report at c_bands before calling an iterative solver
           163 MiB given to the printing process from OS
           128 MiB allocation reported by mallinfo(arena+hblkhd)
        487367 MiB available memory on the node where the printing process lives
------------------
     ethr =  6.79E-06,  avg # of iterations =  2.6

     negative rho (up, down):  4.581E-02 4.474E-02

     total cpu time spent up to now is       65.7 secs

     total energy              =    -351.33255102 Ry
     estimated scf accuracy    <       0.01137810 Ry

     total magnetization       =     9.53 Bohr mag/cell
     absolute magnetization    =    10.36 Bohr mag/cell

     iteration # 32     ecut=    60.00 Ry     beta= 0.40
     Davidson diagonalization with overlap

---- Real-time Memory Report at c_bands before calling an iterative solver
           163 MiB given to the printing process from OS
           128 MiB allocation reported by mallinfo(arena+hblkhd)
        487368 MiB available memory on the node where the printing process lives
------------------
     ethr =  6.79E-06,  avg # of iterations =  1.1

     negative rho (up, down):  4.580E-02 4.473E-02

     total cpu time spent up to now is       67.6 secs

     total energy              =    -351.33459618 Ry
     estimated scf accuracy    <       0.01690409 Ry

     total magnetization       =     9.62 Bohr mag/cell
     absolute magnetization    =    10.44 Bohr mag/cell

     iteration # 33     ecut=    60.00 Ry     beta= 0.40
     Davidson diagonalization with overlap

---- Real-time Memory Report at c_bands before calling an iterative solver
           163 MiB given to the printing process from OS
           128 MiB allocation reported by mallinfo(arena+hblkhd)
        487366 MiB available memory on the node where the printing process lives
------------------
     ethr =  6.79E-06,  avg # of iterations =  1.0

     negative rho (up, down):  4.584E-02 4.471E-02

     total cpu time spent up to now is       69.5 secs

     total energy              =    -351.33486864 Ry
     estimated scf accuracy    <       0.00782483 Ry

     total magnetization       =     9.56 Bohr mag/cell
     absolute magnetization    =    10.35 Bohr mag/cell

     iteration # 34     ecut=    60.00 Ry     beta= 0.40
     Davidson diagonalization with overlap

---- Real-time Memory Report at c_bands before calling an iterative solver
           163 MiB given to the printing process from OS
           128 MiB allocation reported by mallinfo(arena+hblkhd)
        487368 MiB available memory on the node where the printing process lives
------------------
     ethr =  6.79E-06,  avg # of iterations =  1.0

     negative rho (up, down):  4.574E-02 4.482E-02

     total cpu time spent up to now is       71.4 secs

     total energy              =    -351.33922512 Ry
     estimated scf accuracy    <       0.00572896 Ry

     total magnetization       =     9.59 Bohr mag/cell
     absolute magnetization    =    10.35 Bohr mag/cell

     iteration # 35     ecut=    60.00 Ry     beta= 0.40
     Davidson diagonalization with overlap

---- Real-time Memory Report at c_bands before calling an iterative solver
           163 MiB given to the printing process from OS
           128 MiB allocation reported by mallinfo(arena+hblkhd)
        487366 MiB available memory on the node where the printing process lives
------------------
     ethr =  6.79E-06,  avg # of iterations =  2.7

     negative rho (up, down):  4.574E-02 4.481E-02

     total cpu time spent up to now is       73.6 secs

     total energy              =    -351.33859140 Ry
     estimated scf accuracy    <       0.00814930 Ry

     total magnetization       =     9.31 Bohr mag/cell
     absolute magnetization    =    10.14 Bohr mag/cell

     iteration # 36     ecut=    60.00 Ry     beta= 0.40
     Davidson diagonalization with overlap

---- Real-time Memory Report at c_bands before calling an iterative solver
           163 MiB given to the printing process from OS
           128 MiB allocation reported by mallinfo(arena+hblkhd)
        487368 MiB available memory on the node where the printing process lives
------------------
     ethr =  6.79E-06,  avg # of iterations =  1.4

     negative rho (up, down):  4.571E-02 4.484E-02

     total cpu time spent up to now is       75.7 secs

     total energy              =    -351.33779223 Ry
     estimated scf accuracy    <       0.00860317 Ry

     total magnetization       =     9.35 Bohr mag/cell
     absolute magnetization    =    10.17 Bohr mag/cell

     iteration # 37     ecut=    60.00 Ry     beta= 0.40
     Davidson diagonalization with overlap

---- Real-time Memory Report at c_bands before calling an iterative solver
           163 MiB given to the printing process from OS
           128 MiB allocation reported by mallinfo(arena+hblkhd)
        487366 MiB available memory on the node where the printing process lives
------------------
     ethr =  6.79E-06,  avg # of iterations =  1.5

     negative rho (up, down):  4.563E-02 4.488E-02

     total cpu time spent up to now is       77.8 secs

     total energy              =    -351.34038771 Ry
     estimated scf accuracy    <       0.00713861 Ry

     total magnetization       =     9.26 Bohr mag/cell
     absolute magnetization    =    10.10 Bohr mag/cell

     iteration # 38     ecut=    60.00 Ry     beta= 0.40
     Davidson diagonalization with overlap

---- Real-time Memory Report at c_bands before calling an iterative solver
           163 MiB given to the printing process from OS
           128 MiB allocation reported by mallinfo(arena+hblkhd)
        487368 MiB available memory on the node where the printing process lives
------------------
     ethr =  6.79E-06,  avg # of iterations =  1.8

     negative rho (up, down):  4.563E-02 4.488E-02

     total cpu time spent up to now is       79.8 secs

     total energy              =    -351.34024792 Ry
     estimated scf accuracy    <       0.01254081 Ry

     total magnetization       =     9.11 Bohr mag/cell
     absolute magnetization    =    10.02 Bohr mag/cell

     iteration # 39     ecut=    60.00 Ry     beta= 0.40
     Davidson diagonalization with overlap

---- Real-time Memory Report at c_bands before calling an iterative solver
           163 MiB given to the printing process from OS
           128 MiB allocation reported by mallinfo(arena+hblkhd)
        487366 MiB available memory on the node where the printing process lives
------------------
     ethr =  6.79E-06,  avg # of iterations =  1.0

     negative rho (up, down):  4.578E-02 4.477E-02

     total cpu time spent up to now is       81.7 secs

     total energy              =    -351.33438112 Ry
     estimated scf accuracy    <       0.01205806 Ry

     total magnetization       =     9.12 Bohr mag/cell
     absolute magnetization    =    10.02 Bohr mag/cell

     iteration # 40     ecut=    60.00 Ry     beta= 0.40
     Davidson diagonalization with overlap

---- Real-time Memory Report at c_bands before calling an iterative solver
           163 MiB given to the printing process from OS
           128 MiB allocation reported by mallinfo(arena+hblkhd)
        487367 MiB available memory on the node where the printing process lives
------------------
     ethr =  6.79E-06,  avg # of iterations =  2.5

     negative rho (up, down):  4.576E-02 4.475E-02

     total cpu time spent up to now is       84.0 secs

     total energy              =    -351.33488530 Ry
     estimated scf accuracy    <       0.00491481 Ry

     total magnetization       =     9.43 Bohr mag/cell
     absolute magnetization    =    10.22 Bohr mag/cell

     iteration # 41     ecut=    60.00 Ry     beta= 0.40
     Davidson diagonalization with overlap

---- Real-time Memory Report at c_bands before calling an iterative solver
           163 MiB given to the printing process from OS
           128 MiB allocation reported by mallinfo(arena+hblkhd)
        487364 MiB available memory on the node where the printing process lives
------------------
     ethr =  6.79E-06,  avg # of iterations =  1.6

     negative rho (up, down):  4.596E-02 4.466E-02

     total cpu time spent up to now is       86.1 secs

     total energy              =    -351.32989278 Ry
     estimated scf accuracy    <       0.00565352 Ry

     total magnetization       =     9.46 Bohr mag/cell
     absolute magnetization    =    10.25 Bohr mag/cell

     iteration # 42     ecut=    60.00 Ry     beta= 0.40
     Davidson diagonalization with overlap

---- Real-time Memory Report at c_bands before calling an iterative solver
           163 MiB given to the printing process from OS
           128 MiB allocation reported by mallinfo(arena+hblkhd)
        487366 MiB available memory on the node where the printing process lives
------------------
     ethr =  6.79E-06,  avg # of iterations =  5.3

     negative rho (up, down):  4.599E-02 4.464E-02

     total cpu time spent up to now is       88.9 secs

     total energy              =    -351.33159555 Ry
     estimated scf accuracy    <       1.57351602 Ry

     total magnetization       =     7.22 Bohr mag/cell
     absolute magnetization    =     7.41 Bohr mag/cell

     iteration # 43     ecut=    60.00 Ry     beta= 0.40
     Davidson diagonalization with overlap

---- Real-time Memory Report at c_bands before calling an iterative solver
           163 MiB given to the printing process from OS
           128 MiB allocation reported by mallinfo(arena+hblkhd)
        487364 MiB available memory on the node where the printing process lives
------------------
     ethr =  6.79E-06,  avg # of iterations =  1.7

     negative rho (up, down):  4.592E-02 4.469E-02

     total cpu time spent up to now is       91.0 secs

     total energy              =    -351.32161732 Ry
     estimated scf accuracy    <       0.41667362 Ry

     total magnetization       =     8.61 Bohr mag/cell
     absolute magnetization    =     9.01 Bohr mag/cell

     iteration # 44     ecut=    60.00 Ry     beta= 0.40
     Davidson diagonalization with overlap

---- Real-time Memory Report at c_bands before calling an iterative solver
           163 MiB given to the printing process from OS
           128 MiB allocation reported by mallinfo(arena+hblkhd)
        487365 MiB available memory on the node where the printing process lives
------------------
     ethr =  6.79E-06,  avg # of iterations =  2.0

     negative rho (up, down):  4.580E-02 4.474E-02

     total cpu time spent up to now is       93.1 secs

     total energy              =    -351.32828999 Ry
     estimated scf accuracy    <       0.00316354 Ry

     total magnetization       =     9.54 Bohr mag/cell
     absolute magnetization    =    10.21 Bohr mag/cell

     iteration # 45     ecut=    60.00 Ry     beta= 0.40
     Davidson diagonalization with overlap

---- Real-time Memory Report at c_bands before calling an iterative solver
           163 MiB given to the printing process from OS
           128 MiB allocation reported by mallinfo(arena+hblkhd)
        487363 MiB available memory on the node where the printing process lives
------------------
     ethr =  4.65E-06,  avg # of iterations =  3.7

     negative rho (up, down):  4.587E-02 4.471E-02

     total cpu time spent up to now is       95.5 secs

     total energy              =    -351.33319391 Ry
     estimated scf accuracy    <       0.00603014 Ry

     total magnetization       =     9.54 Bohr mag/cell
     absolute magnetization    =    10.32 Bohr mag/cell

     iteration # 46     ecut=    60.00 Ry     beta= 0.40
     Davidson diagonalization with overlap

---- Real-time Memory Report at c_bands before calling an iterative solver
           163 MiB given to the printing process from OS
           128 MiB allocation reported by mallinfo(arena+hblkhd)
        487366 MiB available memory on the node where the printing process lives
------------------
     ethr =  4.65E-06,  avg # of iterations =  1.7

     negative rho (up, down):  4.600E-02 4.458E-02

     total cpu time spent up to now is       97.6 secs

     total energy              =    -351.32597248 Ry
     estimated scf accuracy    <       0.01684019 Ry

     total magnetization       =     9.74 Bohr mag/cell
     absolute magnetization    =    10.51 Bohr mag/cell

     iteration # 47     ecut=    60.00 Ry     beta= 0.40
     Davidson diagonalization with overlap

---- Real-time Memory Report at c_bands before calling an iterative solver
           163 MiB given to the printing process from OS
           128 MiB allocation reported by mallinfo(arena+hblkhd)
        487363 MiB available memory on the node where the printing process lives
------------------
     ethr =  4.65E-06,  avg # of iterations =  3.5

     negative rho (up, down):  4.573E-02 4.477E-02

     total cpu time spent up to now is       99.9 secs

     total energy              =    -351.27872107 Ry
     estimated scf accuracy    <       0.34740665 Ry

     total magnetization       =     8.82 Bohr mag/cell
     absolute magnetization    =     9.22 Bohr mag/cell

     iteration # 48     ecut=    60.00 Ry     beta= 0.40
     Davidson diagonalization with overlap

---- Real-time Memory Report at c_bands before calling an iterative solver
           163 MiB given to the printing process from OS
           128 MiB allocation reported by mallinfo(arena+hblkhd)
        487365 MiB available memory on the node where the printing process lives
------------------
     ethr =  4.65E-06,  avg # of iterations =  4.8

     negative rho (up, down):  4.578E-02 4.473E-02

     total cpu time spent up to now is      102.8 secs

     total energy              =    -351.33580024 Ry
     estimated scf accuracy    <       0.00510212 Ry

     total magnetization       =     9.39 Bohr mag/cell
     absolute magnetization    =    10.19 Bohr mag/cell

     iteration # 49     ecut=    60.00 Ry     beta= 0.40
     Davidson diagonalization with overlap

---- Real-time Memory Report at c_bands before calling an iterative solver
           163 MiB given to the printing process from OS
           128 MiB allocation reported by mallinfo(arena+hblkhd)
        487363 MiB available memory on the node where the printing process lives
------------------
     ethr =  4.65E-06,  avg # of iterations =  1.0

     negative rho (up, down):  4.593E-02 4.463E-02

     total cpu time spent up to now is      104.7 secs

     total energy              =    -351.33264074 Ry
     estimated scf accuracy    <       0.00442727 Ry

     total magnetization       =     9.50 Bohr mag/cell
     absolute magnetization    =    10.27 Bohr mag/cell

     iteration # 50     ecut=    60.00 Ry     beta= 0.40
     Davidson diagonalization with overlap

---- Real-time Memory Report at c_bands before calling an iterative solver
           163 MiB given to the printing process from OS
           128 MiB allocation reported by mallinfo(arena+hblkhd)
        487365 MiB available memory on the node where the printing process lives
------------------
     ethr =  4.65E-06,  avg # of iterations =  3.1

     negative rho (up, down):  4.587E-02 4.469E-02

     total cpu time spent up to now is      107.0 secs

     total energy              =    -351.33083201 Ry
     estimated scf accuracy    <       0.00034204 Ry

     total magnetization       =     9.75 Bohr mag/cell
     absolute magnetization    =    10.41 Bohr mag/cell

     iteration # 51     ecut=    60.00 Ry     beta= 0.40
     Davidson diagonalization with overlap

---- Real-time Memory Report at c_bands before calling an iterative solver
           163 MiB given to the printing process from OS
           128 MiB allocation reported by mallinfo(arena+hblkhd)
        487362 MiB available memory on the node where the printing process lives
------------------
     ethr =  5.03E-07,  avg # of iterations =  3.9

     negative rho (up, down):  4.571E-02 4.477E-02

     total cpu time spent up to now is      109.9 secs

     total energy              =    -351.33953780 Ry
     estimated scf accuracy    <       0.01177630 Ry

     total magnetization       =     9.74 Bohr mag/cell
     absolute magnetization    =    10.49 Bohr mag/cell

     iteration # 52     ecut=    60.00 Ry     beta= 0.40
     Davidson diagonalization with overlap

---- Real-time Memory Report at c_bands before calling an iterative solver
           164 MiB given to the printing process from OS
           128 MiB allocation reported by mallinfo(arena+hblkhd)
        487364 MiB available memory on the node where the printing process lives
------------------
     ethr =  5.03E-07,  avg # of iterations =  4.9

     negative rho (up, down):  4.561E-02 4.479E-02

     total cpu time spent up to now is      112.8 secs

     total energy              =    -351.33966145 Ry
     estimated scf accuracy    <       0.00602196 Ry

     total magnetization       =     9.39 Bohr mag/cell
     absolute magnetization    =    10.19 Bohr mag/cell

     iteration # 53     ecut=    60.00 Ry     beta= 0.40
     Davidson diagonalization with overlap

---- Real-time Memory Report at c_bands before calling an iterative solver
           164 MiB given to the printing process from OS
           128 MiB allocation reported by mallinfo(arena+hblkhd)
        487361 MiB available memory on the node where the printing process lives
------------------
     ethr =  5.03E-07,  avg # of iterations =  4.8

     negative rho (up, down):  4.569E-02 4.480E-02

     total cpu time spent up to now is      115.6 secs

     total energy              =    -351.33807311 Ry
     estimated scf accuracy    <       0.01129466 Ry

     total magnetization       =     9.25 Bohr mag/cell
     absolute magnetization    =    10.10 Bohr mag/cell

     iteration # 54     ecut=    60.00 Ry     beta= 0.40
     Davidson diagonalization with overlap

---- Real-time Memory Report at c_bands before calling an iterative solver
           164 MiB given to the printing process from OS
           128 MiB allocation reported by mallinfo(arena+hblkhd)
        487364 MiB available memory on the node where the printing process lives
------------------
     ethr =  5.03E-07,  avg # of iterations =  2.8

     negative rho (up, down):  4.555E-02 4.489E-02

     total cpu time spent up to now is      118.0 secs

     total energy              =    -351.34437944 Ry
     estimated scf accuracy    <       0.00777457 Ry

     total magnetization       =     9.32 Bohr mag/cell
     absolute magnetization    =    10.13 Bohr mag/cell

     iteration # 55     ecut=    60.00 Ry     beta= 0.40
     Davidson diagonalization with overlap

---- Real-time Memory Report at c_bands before calling an iterative solver
           164 MiB given to the printing process from OS
           128 MiB allocation reported by mallinfo(arena+hblkhd)
        487361 MiB available memory on the node where the printing process lives
------------------
     ethr =  5.03E-07,  avg # of iterations =  4.5

     negative rho (up, down):  4.572E-02 4.477E-02

     total cpu time spent up to now is      120.8 secs

     total energy              =    -351.33487273 Ry
     estimated scf accuracy    <       0.02331232 Ry

     total magnetization       =     9.05 Bohr mag/cell
     absolute magnetization    =     9.97 Bohr mag/cell

     iteration # 56     ecut=    60.00 Ry     beta= 0.40
     Davidson diagonalization with overlap

---- Real-time Memory Report at c_bands before calling an iterative solver
           164 MiB given to the printing process from OS
           128 MiB allocation reported by mallinfo(arena+hblkhd)
        487364 MiB available memory on the node where the printing process lives
------------------
     ethr =  5.03E-07,  avg # of iterations =  4.6

     negative rho (up, down):  4.570E-02 4.474E-02

     total cpu time spent up to now is      123.8 secs

     total energy              =    -351.33646481 Ry
     estimated scf accuracy    <       0.00506000 Ry

     total magnetization       =     9.40 Bohr mag/cell
     absolute magnetization    =    10.19 Bohr mag/cell

     iteration # 57     ecut=    60.00 Ry     beta= 0.40
     Davidson diagonalization with overlap

---- Real-time Memory Report at c_bands before calling an iterative solver
           164 MiB given to the printing process from OS
           128 MiB allocation reported by mallinfo(arena+hblkhd)
        487361 MiB available memory on the node where the printing process lives
------------------
     ethr =  5.03E-07,  avg # of iterations =  1.1

     negative rho (up, down):  4.581E-02 4.470E-02

     total cpu time spent up to now is      125.7 secs

     total energy              =    -351.33403587 Ry
     estimated scf accuracy    <       0.00473980 Ry

     total magnetization       =     9.40 Bohr mag/cell
     absolute magnetization    =    10.19 Bohr mag/cell

     iteration # 58     ecut=    60.00 Ry     beta= 0.40
     Davidson diagonalization with overlap

---- Real-time Memory Report at c_bands before calling an iterative solver
           164 MiB given to the printing process from OS
           128 MiB allocation reported by mallinfo(arena+hblkhd)
        487364 MiB available memory on the node where the printing process lives
------------------
     ethr =  5.03E-07,  avg # of iterations =  3.9

     negative rho (up, down):  4.580E-02 4.471E-02

     total cpu time spent up to now is      128.4 secs

     total energy              =    -351.33349167 Ry
     estimated scf accuracy    <       0.01421257 Ry

     total magnetization       =     9.67 Bohr mag/cell
     absolute magnetization    =    10.45 Bohr mag/cell

     iteration # 59     ecut=    60.00 Ry     beta= 0.40
     Davidson diagonalization with overlap

---- Real-time Memory Report at c_bands before calling an iterative solver
           164 MiB given to the printing process from OS
           128 MiB allocation reported by mallinfo(arena+hblkhd)
        487361 MiB available memory on the node where the printing process lives
------------------
     ethr =  5.03E-07,  avg # of iterations =  1.0

     negative rho (up, down):  4.560E-02 4.483E-02

     total cpu time spent up to now is      130.3 secs

     total energy              =    -351.34616620 Ry
     estimated scf accuracy    <       0.01218222 Ry

     total magnetization       =     9.65 Bohr mag/cell
     absolute magnetization    =    10.42 Bohr mag/cell

     iteration # 60     ecut=    60.00 Ry     beta= 0.40
     Davidson diagonalization with overlap

---- Real-time Memory Report at c_bands before calling an iterative solver
           164 MiB given to the printing process from OS
           128 MiB allocation reported by mallinfo(arena+hblkhd)
        487363 MiB available memory on the node where the printing process lives
------------------
     ethr =  5.03E-07,  avg # of iterations =  6.0

     negative rho (up, down):  4.551E-02 4.483E-02

     total cpu time spent up to now is      133.5 secs

     total energy              =    -351.34453964 Ry
     estimated scf accuracy    <       0.01521783 Ry

     total magnetization       =     9.19 Bohr mag/cell
     absolute magnetization    =    10.06 Bohr mag/cell

     iteration # 61     ecut=    60.00 Ry     beta= 0.40
     Davidson diagonalization with overlap

---- Real-time Memory Report at c_bands before calling an iterative solver
           164 MiB given to the printing process from OS
           128 MiB allocation reported by mallinfo(arena+hblkhd)
        487360 MiB available memory on the node where the printing process lives
------------------
     ethr =  5.03E-07,  avg # of iterations =  3.5

     negative rho (up, down):  4.554E-02 4.480E-02

     total cpu time spent up to now is      136.1 secs

     total energy              =    -351.34235285 Ry
     estimated scf accuracy    <       0.02169380 Ry

     total magnetization       =     9.08 Bohr mag/cell
     absolute magnetization    =     9.99 Bohr mag/cell

     iteration # 62     ecut=    60.00 Ry     beta= 0.40
     Davidson diagonalization with overlap

---- Real-time Memory Report at c_bands before calling an iterative solver
           164 MiB given to the printing process from OS
           128 MiB allocation reported by mallinfo(arena+hblkhd)
        487362 MiB available memory on the node where the printing process lives
------------------
     ethr =  5.03E-07,  avg # of iterations =  2.5

     negative rho (up, down):  4.547E-02 4.488E-02

     total cpu time spent up to now is      138.3 secs

     total energy              =    -351.34871526 Ry
     estimated scf accuracy    <       0.01700149 Ry

     total magnetization       =     9.14 Bohr mag/cell
     absolute magnetization    =    10.03 Bohr mag/cell

     iteration # 63     ecut=    60.00 Ry     beta= 0.40
     Davidson diagonalization with overlap

[...]

     iteration #480     ecut=    60.00 Ry     beta= 0.40
     Davidson diagonalization with overlap

---- Real-time Memory Report at c_bands before calling an iterative solver
           165 MiB given to the printing process from OS
           128 MiB allocation reported by mallinfo(arena+hblkhd)
        487317 MiB available memory on the node where the printing process lives
------------------
     ethr =  3.99E-07,  avg # of iterations =  4.7

     negative rho (up, down):  4.595E-02 4.469E-02

     total cpu time spent up to now is     1182.6 secs

     total energy              =    -351.30865806 Ry
     estimated scf accuracy    <       2.78944191 Ry

     total magnetization       =     5.99 Bohr mag/cell
     absolute magnetization    =     6.14 Bohr mag/cell

     iteration #481     ecut=    60.00 Ry     beta= 0.40
     Davidson diagonalization with overlap

---- Real-time Memory Report at c_bands before calling an iterative solver
           165 MiB given to the printing process from OS
           128 MiB allocation reported by mallinfo(arena+hblkhd)
        487318 MiB available memory on the node where the printing process lives
------------------
     ethr =  3.99E-07,  avg # of iterations =  4.6

     negative rho (up, down):  4.572E-02 4.481E-02

     total cpu time spent up to now is     1185.5 secs

     total energy              =    -351.29454877 Ry
     estimated scf accuracy    <       0.26434696 Ry

     total magnetization       =     8.82 Bohr mag/cell
     absolute magnetization    =     9.29 Bohr mag/cell

     iteration #482     ecut=    60.00 Ry     beta= 0.40
     Davidson diagonalization with overlap

---- Real-time Memory Report at c_bands before calling an iterative solver
           165 MiB given to the printing process from OS
           128 MiB allocation reported by mallinfo(arena+hblkhd)
        487315 MiB available memory on the node where the printing process lives
------------------
     ethr =  3.99E-07,  avg # of iterations =  5.5

     negative rho (up, down):  4.597E-02 4.467E-02

     total cpu time spent up to now is     1188.6 secs

     total energy              =    -351.33186916 Ry
     estimated scf accuracy    <       0.00422330 Ry

     total magnetization       =     9.36 Bohr mag/cell
     absolute magnetization    =    10.18 Bohr mag/cell

     iteration #483     ecut=    60.00 Ry     beta= 0.40
     Davidson diagonalization with overlap

---- Real-time Memory Report at c_bands before calling an iterative solver
           165 MiB given to the printing process from OS
           128 MiB allocation reported by mallinfo(arena+hblkhd)
        487316 MiB available memory on the node where the printing process lives
------------------
     ethr =  3.99E-07,  avg # of iterations =  5.2

     negative rho (up, down):  4.597E-02 4.467E-02

     total cpu time spent up to now is     1191.6 secs

     total energy              =    -351.33377793 Ry
     estimated scf accuracy    <       0.14766851 Ry

     total magnetization       =     9.09 Bohr mag/cell
     absolute magnetization    =     9.60 Bohr mag/cell

     iteration #484     ecut=    60.00 Ry     beta= 0.40
     Davidson diagonalization with overlap

---- Real-time Memory Report at c_bands before calling an iterative solver
           165 MiB given to the printing process from OS
           128 MiB allocation reported by mallinfo(arena+hblkhd)
        487316 MiB available memory on the node where the printing process lives
------------------
     ethr =  3.99E-07,  avg # of iterations =  1.0

     negative rho (up, down):  4.575E-02 4.479E-02

     total cpu time spent up to now is     1193.5 secs

     total energy              =    -351.31117287 Ry
     estimated scf accuracy    <       0.16025511 Ry

     total magnetization       =     9.06 Bohr mag/cell
     absolute magnetization    =     9.56 Bohr mag/cell

     iteration #485     ecut=    60.00 Ry     beta= 0.40
     Davidson diagonalization with overlap

---- Real-time Memory Report at c_bands before calling an iterative solver
           165 MiB given to the printing process from OS
           128 MiB allocation reported by mallinfo(arena+hblkhd)
        487314 MiB available memory on the node where the printing process lives
------------------
     ethr =  3.99E-07,  avg # of iterations =  4.6

     negative rho (up, down):  4.576E-02 4.481E-02

     total cpu time spent up to now is     1196.4 secs

     total energy              =    -351.33243824 Ry
     estimated scf accuracy    <       0.00884247 Ry

     total magnetization       =     9.49 Bohr mag/cell
     absolute magnetization    =    10.31 Bohr mag/cell

     iteration #486     ecut=    60.00 Ry     beta= 0.40
     Davidson diagonalization with overlap

---- Real-time Memory Report at c_bands before calling an iterative solver
           165 MiB given to the printing process from OS
           128 MiB allocation reported by mallinfo(arena+hblkhd)
        487315 MiB available memory on the node where the printing process lives
------------------
     ethr =  3.99E-07,  avg # of iterations =  2.5

     negative rho (up, down):  4.579E-02 4.477E-02

     total cpu time spent up to now is     1198.7 secs

     total energy              =    -351.33324008 Ry
     estimated scf accuracy    <       0.01702401 Ry

     total magnetization       =     9.54 Bohr mag/cell
     absolute magnetization    =    10.39 Bohr mag/cell

     iteration #487     ecut=    60.00 Ry     beta= 0.40
     Davidson diagonalization with overlap

---- Real-time Memory Report at c_bands before calling an iterative solver
           165 MiB given to the printing process from OS
           128 MiB allocation reported by mallinfo(arena+hblkhd)
        487316 MiB available memory on the node where the printing process lives
------------------
     ethr =  3.99E-07,  avg # of iterations =  2.0

     negative rho (up, down):  4.574E-02 4.476E-02

     total cpu time spent up to now is     1200.8 secs

     total energy              =    -351.33735220 Ry
     estimated scf accuracy    <       0.01347804 Ry

     total magnetization       =     9.59 Bohr mag/cell
     absolute magnetization    =    10.40 Bohr mag/cell

     iteration #488     ecut=    60.00 Ry     beta= 0.40
     Davidson diagonalization with overlap

---- Real-time Memory Report at c_bands before calling an iterative solver
           165 MiB given to the printing process from OS
           128 MiB allocation reported by mallinfo(arena+hblkhd)
        487314 MiB available memory on the node where the printing process lives
------------------
     ethr =  3.99E-07,  avg # of iterations =  3.5

     negative rho (up, down):  4.573E-02 4.476E-02

     total cpu time spent up to now is     1203.4 secs

     total energy              =    -351.33655062 Ry
     estimated scf accuracy    <       0.00429012 Ry

     total magnetization       =     9.45 Bohr mag/cell
     absolute magnetization    =    10.23 Bohr mag/cell

     iteration #489     ecut=    60.00 Ry     beta= 0.40
     Davidson diagonalization with overlap

---- Real-time Memory Report at c_bands before calling an iterative solver
           165 MiB given to the printing process from OS
           128 MiB allocation reported by mallinfo(arena+hblkhd)
        487315 MiB available memory on the node where the printing process lives
------------------
     ethr =  3.99E-07,  avg # of iterations =  2.0

     negative rho (up, down):  4.578E-02 4.474E-02

     total cpu time spent up to now is     1205.5 secs

     total energy              =    -351.33534258 Ry
     estimated scf accuracy    <       0.00472639 Ry

     total magnetization       =     9.43 Bohr mag/cell
     absolute magnetization    =    10.21 Bohr mag/cell

     iteration #490     ecut=    60.00 Ry     beta= 0.40
     Davidson diagonalization with overlap

---- Real-time Memory Report at c_bands before calling an iterative solver
           165 MiB given to the printing process from OS
           128 MiB allocation reported by mallinfo(arena+hblkhd)
        487317 MiB available memory on the node where the printing process lives
------------------
     ethr =  3.99E-07,  avg # of iterations =  2.5

     negative rho (up, down):  4.578E-02 4.471E-02

     total cpu time spent up to now is     1207.9 secs

     total energy              =    -351.33595386 Ry
     estimated scf accuracy    <       0.00479130 Ry

     total magnetization       =     9.54 Bohr mag/cell
     absolute magnetization    =    10.30 Bohr mag/cell

     iteration #491     ecut=    60.00 Ry     beta= 0.40
     Davidson diagonalization with overlap

---- Real-time Memory Report at c_bands before calling an iterative solver
           165 MiB given to the printing process from OS
           128 MiB allocation reported by mallinfo(arena+hblkhd)
        487314 MiB available memory on the node where the printing process lives
------------------
     ethr =  3.99E-07,  avg # of iterations =  2.0

     negative rho (up, down):  4.585E-02 4.468E-02

     total cpu time spent up to now is     1209.9 secs

     total energy              =    -351.33475966 Ry
     estimated scf accuracy    <       0.00433580 Ry

     total magnetization       =     9.54 Bohr mag/cell
     absolute magnetization    =    10.28 Bohr mag/cell

     iteration #492     ecut=    60.00 Ry     beta= 0.40
     Davidson diagonalization with overlap

---- Real-time Memory Report at c_bands before calling an iterative solver
           165 MiB given to the printing process from OS
           128 MiB allocation reported by mallinfo(arena+hblkhd)
        487315 MiB available memory on the node where the printing process lives
------------------
     ethr =  3.99E-07,  avg # of iterations =  2.5

     negative rho (up, down):  4.585E-02 4.467E-02

     total cpu time spent up to now is     1212.3 secs

     total energy              =    -351.33479549 Ry
     estimated scf accuracy    <       0.00700970 Ry

     total magnetization       =     9.68 Bohr mag/cell
     absolute magnetization    =    10.41 Bohr mag/cell

     iteration #493     ecut=    60.00 Ry     beta= 0.40
     Davidson diagonalization with overlap

---- Real-time Memory Report at c_bands before calling an iterative solver
           165 MiB given to the printing process from OS
           128 MiB allocation reported by mallinfo(arena+hblkhd)
        487316 MiB available memory on the node where the printing process lives
------------------
     ethr =  3.99E-07,  avg # of iterations =  1.0

     negative rho (up, down):  4.570E-02 4.486E-02

     total cpu time spent up to now is     1214.2 secs

     total energy              =    -351.33545008 Ry
     estimated scf accuracy    <       0.00620801 Ry

     total magnetization       =     9.69 Bohr mag/cell
     absolute magnetization    =    10.41 Bohr mag/cell

     iteration #494     ecut=    60.00 Ry     beta= 0.40
     Davidson diagonalization with overlap

---- Real-time Memory Report at c_bands before calling an iterative solver
           165 MiB given to the printing process from OS
           128 MiB allocation reported by mallinfo(arena+hblkhd)
        487314 MiB available memory on the node where the printing process lives
------------------
     ethr =  3.99E-07,  avg # of iterations =  2.0

     negative rho (up, down):  4.572E-02 4.483E-02

     total cpu time spent up to now is     1216.5 secs

     total energy              =    -351.33525805 Ry
     estimated scf accuracy    <       0.00421161 Ry

     total magnetization       =     9.33 Bohr mag/cell
     absolute magnetization    =    10.17 Bohr mag/cell

     iteration #495     ecut=    60.00 Ry     beta= 0.40
     Davidson diagonalization with overlap

---- Real-time Memory Report at c_bands before calling an iterative solver
           165 MiB given to the printing process from OS
           128 MiB allocation reported by mallinfo(arena+hblkhd)
        487315 MiB available memory on the node where the printing process lives
------------------
     ethr =  3.99E-07,  avg # of iterations =  1.1

     negative rho (up, down):  4.574E-02 4.484E-02

     total cpu time spent up to now is     1218.5 secs

     total energy              =    -351.33464230 Ry
     estimated scf accuracy    <       0.00469139 Ry

     total magnetization       =     9.38 Bohr mag/cell
     absolute magnetization    =    10.21 Bohr mag/cell

     iteration #496     ecut=    60.00 Ry     beta= 0.40
     Davidson diagonalization with overlap

---- Real-time Memory Report at c_bands before calling an iterative solver
           165 MiB given to the printing process from OS
           128 MiB allocation reported by mallinfo(arena+hblkhd)
        487315 MiB available memory on the node where the printing process lives
------------------
     ethr =  3.99E-07,  avg # of iterations =  2.0

     negative rho (up, down):  4.576E-02 4.483E-02

     total cpu time spent up to now is     1220.6 secs

     total energy              =    -351.33389330 Ry
     estimated scf accuracy    <       0.00663001 Ry

     total magnetization       =     9.42 Bohr mag/cell
     absolute magnetization    =    10.25 Bohr mag/cell

     iteration #497     ecut=    60.00 Ry     beta= 0.40
     Davidson diagonalization with overlap

---- Real-time Memory Report at c_bands before calling an iterative solver
           165 MiB given to the printing process from OS
           128 MiB allocation reported by mallinfo(arena+hblkhd)
        487313 MiB available memory on the node where the printing process lives
------------------
     ethr =  3.99E-07,  avg # of iterations =  2.0

     negative rho (up, down):  4.560E-02 4.486E-02

     total cpu time spent up to now is     1222.7 secs

     total energy              =    -351.34332710 Ry
     estimated scf accuracy    <       0.01035078 Ry

     total magnetization       =     9.50 Bohr mag/cell
     absolute magnetization    =    10.33 Bohr mag/cell

     iteration #498     ecut=    60.00 Ry     beta= 0.40
     Davidson diagonalization with overlap

---- Real-time Memory Report at c_bands before calling an iterative solver
           165 MiB given to the printing process from OS
           128 MiB allocation reported by mallinfo(arena+hblkhd)
        487314 MiB available memory on the node where the printing process lives
------------------
     ethr =  3.99E-07,  avg # of iterations =  5.0

     negative rho (up, down):  4.557E-02 4.487E-02

     total cpu time spent up to now is     1225.7 secs

     total energy              =    -351.34223517 Ry
     estimated scf accuracy    <       0.01175198 Ry

     total magnetization       =     9.17 Bohr mag/cell
     absolute magnetization    =    10.05 Bohr mag/cell

     iteration #499     ecut=    60.00 Ry     beta= 0.40
     Davidson diagonalization with overlap

---- Real-time Memory Report at c_bands before calling an iterative solver
           165 MiB given to the printing process from OS
           128 MiB allocation reported by mallinfo(arena+hblkhd)
        487315 MiB available memory on the node where the printing process lives
------------------
     ethr =  3.99E-07,  avg # of iterations =  2.5

     negative rho (up, down):  4.583E-02 4.479E-02

     total cpu time spent up to now is     1228.1 secs

     total energy              =    -351.32926018 Ry
     estimated scf accuracy    <       0.01660095 Ry

     total magnetization       =     9.12 Bohr mag/cell
     absolute magnetization    =    10.02 Bohr mag/cell

     iteration #500     ecut=    60.00 Ry     beta= 0.40
     Davidson diagonalization with overlap

---- Real-time Memory Report at c_bands before calling an iterative solver
           165 MiB given to the printing process from OS
           128 MiB allocation reported by mallinfo(arena+hblkhd)
        487313 MiB available memory on the node where the printing process lives
------------------
     ethr =  3.99E-07,  avg # of iterations =  6.2

     negative rho (up, down):  4.589E-02 4.474E-02

     total cpu time spent up to now is     1231.4 secs

     total energy              =    -351.33227287 Ry
     estimated scf accuracy    <       0.06334337 Ry

     total magnetization       =     9.10 Bohr mag/cell
     absolute magnetization    =     9.73 Bohr mag/cell

     End of self-consistent calculation

     convergence NOT achieved after 500 iterations: stopping

     Writing config to output data dir ./out/aiida.save/ :
     XML data file, charge density

     init_run     :      1.93s CPU      2.06s WALL (       1 calls)
     electrons    :   1190.24s CPU   1229.01s WALL (       1 calls)

     Called by init_run:
     wfcinit      :      0.57s CPU      0.60s WALL (       1 calls)
     wfcinit:atom :      0.01s CPU      0.01s WALL (       5 calls)
     wfcinit:wfcr :      0.51s CPU      0.53s WALL (       5 calls)
     potinit      :      0.50s CPU      0.55s WALL (       1 calls)
     hinit0       :      0.66s CPU      0.68s WALL (       1 calls)

     Called by electrons:
     c_bands      :    754.47s CPU    779.43s WALL (     500 calls)
     sum_band     :    193.11s CPU    201.41s WALL (     500 calls)
     v_of_rho     :    149.62s CPU    153.18s WALL (     501 calls)
     v_h          :      5.60s CPU      5.78s WALL (     501 calls)
     v_xc         :    144.02s CPU    147.40s WALL (     501 calls)
     newd         :     51.69s CPU     52.17s WALL (     501 calls)
     mix_rho      :     18.98s CPU     19.49s WALL (     500 calls)

     Called by c_bands:
     init_us_2    :     20.18s CPU     20.22s WALL (    5005 calls)
     init_us_2:cp :     20.16s CPU     20.20s WALL (    5005 calls)
     cegterg      :    703.05s CPU    726.37s WALL (    2500 calls)

     Called by sum_band:
     sum_band:wei :      0.49s CPU      0.50s WALL (     500 calls)
     sum_band:loo :    114.41s CPU    118.33s WALL (     500 calls)
     sum_band:buf :      2.76s CPU      2.80s WALL (    2500 calls)
     sum_band:ini :      9.83s CPU      9.84s WALL (    2500 calls)
     sum_band:cal :     15.02s CPU     15.03s WALL (    2500 calls)
     sum_band:bec :      0.15s CPU      0.15s WALL (    2500 calls)
     addusdens    :     59.97s CPU     60.93s WALL (     500 calls)
                                        0.00s GPU  (     500 calls)
     addusd:skk   :      0.34s CPU      0.34s WALL (    1500 calls)
                                        0.00s GPU  (    1500 calls)

     Called by *egterg:
     cdiaghg      :     19.94s CPU     20.33s WALL (   10771 calls)
     cegterg:over :     27.92s CPU     28.04s WALL (    8271 calls)
     cegterg:upda :     17.90s CPU     17.97s WALL (    8271 calls)
     cegterg:last :     40.31s CPU     40.35s WALL (    5800 calls)
     h_psi        :    535.78s CPU    557.93s WALL (   10776 calls)
     s_psi        :     40.93s CPU     41.02s WALL (   10776 calls)
     g_psi        :      1.46s CPU      1.50s WALL (    8271 calls)

     Called by h_psi:
     h_psi:calbec :     52.14s CPU     52.22s WALL (   10776 calls)
     vloc_psi     :    434.68s CPU    456.49s WALL (   10776 calls)
     add_vuspsi   :     43.73s CPU     43.94s WALL (   10776 calls)

     General routines
     calbec       :     67.09s CPU     67.19s WALL (   13276 calls)
     fft          :     53.73s CPU     58.71s WALL (   12523 calls)
     ffts         :      2.45s CPU      2.66s WALL (    2002 calls)
     fftw         :    417.07s CPU    439.73s WALL (  686134 calls)
     interpolate  :      7.81s CPU      8.39s WALL (    1002 calls)
     davcio       :      0.00s CPU      0.09s WALL (      23 calls)

     Parallel routines

     PWSCF        :  19m52.45s CPU  20m31.98s WALL


   This run was terminated on:  22: 5: 4  28Nov2023            

=------------------------------------------------------------------------------=
   JOB DONE.
=------------------------------------------------------------------------------=
